
     Program PHONON v.7.5 starts on 20Jun2026 at 17:57:42 

     This program is part of the open-source Quantum ESPRESSO suite
     for quantum simulation of materials; please cite
         "P. Giannozzi et al., J. Phys.:Condens. Matter 21 395502 (2009);
         "P. Giannozzi et al., J. Phys.:Condens. Matter 29 465901 (2017);
         "P. Giannozzi et al., J. Chem. Phys. 152 154105 (2020);
          URL http://www.quantum-espresso.org", 
     in publications or presentations arising from this work. More details at
     http://www.quantum-espresso.org/quote

     Parallel version (MPI), running on    68 processors

     MPI processes distributed on     1 nodes
     75764 MiB available memory on the printing compute node when the environment starts
 
     Waiting for input...
     Reading input from standard input

     Reading xml data from directory:

     ./out/gaas.save/
 
     K-points division:     npool     =       4
     R & G space division:  proc/nbgrp/npool/nimage =      17
     Subspace diagonalization in iterative solution of the eigenvalue problem:
     a serial algorithm will be used

     file Ga.pbe-dn-kjpaw_psl.0.2.upf: wavefunction(s)  4S 3D renormalized

     IMPORTANT: XC functional enforced from input :
     Exchange-correlation= PBE
                           (   1   4   3   4   0   0   0)
     Any further DFT definition will be discarded
     Please, verify this is what you really want

 
     Parallelization info
     --------------------
     sticks:   dense  smooth     PW     G-vecs:    dense   smooth      PW
     Min         129      64     18                 4004     1413     224
     Max         130      65     19                 4007     1416     229
     Sum        2209    1099    313                68105    24045    3839
 
     Using Slab Decomposition
 
     Reading collected, re-writing distributed wavefunctions in ./out/

     Number and degeneracy of irreps per q-point
       N         xq(1)         xq(2)         xq(3)   N irreps
       1   0.000000000   0.000000000   0.000000000       2
        3   3

     Calculation of q =    0.0000000   0.0000000   0.0000000

     GaAs Gamma-point phonons (LO-TO via Born effective charges)                

     bravais-lattice index     =            0
     lattice parameter (alat)  =      10.6829  a.u.
     unit-cell volume          =     304.7948 (a.u.)^3
     number of atoms/cell      =            2
     number of atomic types    =            2
     kinetic-energy cut-off    =      70.0000  Ry
     charge density cut-off    =     560.0000  Ry
     convergence threshold     =      1.0E-16
     beta                      =       0.7000
     number of iterations used =           12
     Exchange-correlation= PBE
                           (   1   4   3   4   0   0   0)


     celldm(1)=   10.68290  celldm(2)=    0.00000  celldm(3)=    0.00000
     celldm(4)=    0.00000  celldm(5)=    0.00000  celldm(6)=    0.00000

     crystal axes: (cart. coord. in units of alat)
               a(1) = ( -0.5000  0.0000  0.5000 )  
               a(2) = (  0.0000  0.5000  0.5000 )  
               a(3) = ( -0.5000  0.5000  0.0000 )  

     reciprocal axes: (cart. coord. in units 2 pi/alat)
               b(1) = ( -1.0000 -1.0000  1.0000 )  
               b(2) = (  1.0000  1.0000  1.0000 )  
               b(3) = ( -1.0000  1.0000 -1.0000 )  


     Atoms inside the unit cell: 

     Cartesian axes

     site n.  atom      mass           positions (alat units)
        1  Ga     69.7230   tau(    1) = (    0.00000    0.00000    0.00000  )
        2  As     74.9216   tau(    2) = (    0.25000    0.25000    0.25000  )

     Computing dynamical matrix for 
                    q = (   0.0000000   0.0000000   0.0000000 )
 
     25 Sym.Ops. (with q -> -q+G )


     G cutoff = 1618.8500  (   4007 G-vectors)     FFT grid: ( 60, 60, 60)
     G cutoff =  809.4250  (   1416 G-vectors)  smooth grid: ( 45, 45, 45)
     number of k points=    72
                       cart. coord. in units 2pi/alat
        k(    1) = (   0.0000000   0.0000000   0.0000000), wk =   0.0011574
        k(    2) = (  -0.0833333   0.0833333  -0.0833333), wk =   0.0092593
        k(    3) = (  -0.1666667   0.1666667  -0.1666667), wk =   0.0092593
        k(    4) = (  -0.2500000   0.2500000  -0.2500000), wk =   0.0092593
        k(    5) = (  -0.3333333   0.3333333  -0.3333333), wk =   0.0092593
        k(    6) = (  -0.4166667   0.4166667  -0.4166667), wk =   0.0092593
        k(    7) = (   0.5000000  -0.5000000   0.5000000), wk =   0.0046296
        k(    8) = (   0.0000000   0.1666667   0.0000000), wk =   0.0069444
        k(    9) = (  -0.0833333   0.2500000  -0.0833333), wk =   0.0277778
        k(   10) = (  -0.1666667   0.3333333  -0.1666667), wk =   0.0277778
        k(   11) = (  -0.2500000   0.4166667  -0.2500000), wk =   0.0277778
        k(   12) = (  -0.3333333   0.5000000  -0.3333333), wk =   0.0277778
        k(   13) = (   0.5833333  -0.4166667   0.5833333), wk =   0.0277778
        k(   14) = (   0.5000000  -0.3333333   0.5000000), wk =   0.0277778
        k(   15) = (   0.4166667  -0.2500000   0.4166667), wk =   0.0277778
        k(   16) = (   0.3333333  -0.1666667   0.3333333), wk =   0.0277778
        k(   17) = (   0.2500000  -0.0833333   0.2500000), wk =   0.0277778
        k(   18) = (   0.1666667  -0.0000000   0.1666667), wk =   0.0138889
        k(   19) = (   0.0000000   0.3333333   0.0000000), wk =   0.0069444
        k(   20) = (  -0.0833333   0.4166667  -0.0833333), wk =   0.0277778
        k(   21) = (  -0.1666667   0.5000000  -0.1666667), wk =   0.0277778
        k(   22) = (  -0.2500000   0.5833333  -0.2500000), wk =   0.0277778
        k(   23) = (   0.6666667  -0.3333333   0.6666667), wk =   0.0277778
        k(   24) = (   0.5833333  -0.2500000   0.5833333), wk =   0.0277778
        k(   25) = (   0.5000000  -0.1666667   0.5000000), wk =   0.0277778
        k(   26) = (   0.4166667  -0.0833333   0.4166667), wk =   0.0277778
        k(   27) = (   0.3333333  -0.0000000   0.3333333), wk =   0.0138889
        k(   28) = (   0.0000000   0.5000000   0.0000000), wk =   0.0069444
        k(   29) = (  -0.0833333   0.5833333  -0.0833333), wk =   0.0277778
        k(   30) = (  -0.1666667   0.6666667  -0.1666667), wk =   0.0277778
        k(   31) = (   0.7500000  -0.2500000   0.7500000), wk =   0.0277778
        k(   32) = (   0.6666667  -0.1666667   0.6666667), wk =   0.0277778
        k(   33) = (   0.5833333  -0.0833333   0.5833333), wk =   0.0277778
        k(   34) = (   0.5000000   0.0000000   0.5000000), wk =   0.0138889
        k(   35) = (   0.0000000   0.6666667   0.0000000), wk =   0.0069444
        k(   36) = (  -0.0833333   0.7500000  -0.0833333), wk =   0.0277778
        k(   37) = (   0.8333333  -0.1666667   0.8333333), wk =   0.0277778
        k(   38) = (   0.7500000  -0.0833333   0.7500000), wk =   0.0277778
        k(   39) = (   0.6666667  -0.0000000   0.6666667), wk =   0.0138889
        k(   40) = (   0.0000000   0.8333333   0.0000000), wk =   0.0069444
        k(   41) = (   0.9166667  -0.0833333   0.9166667), wk =   0.0277778
        k(   42) = (   0.8333333  -0.0000000   0.8333333), wk =   0.0138889
        k(   43) = (   0.0000000  -1.0000000   0.0000000), wk =   0.0034722
        k(   44) = (  -0.1666667   0.3333333   0.0000000), wk =   0.0277778
        k(   45) = (  -0.2500000   0.4166667  -0.0833333), wk =   0.0555556
        k(   46) = (  -0.3333333   0.5000000  -0.1666667), wk =   0.0555556
        k(   47) = (   0.5833333  -0.4166667   0.7500000), wk =   0.0555556
        k(   48) = (   0.5000000  -0.3333333   0.6666667), wk =   0.0277778
        k(   49) = (  -0.1666667   0.5000000   0.0000000), wk =   0.0277778
        k(   50) = (  -0.2500000   0.5833333  -0.0833333), wk =   0.0555556
        k(   51) = (   0.6666667  -0.3333333   0.8333333), wk =   0.0555556
        k(   52) = (   0.5833333  -0.2500000   0.7500000), wk =   0.0555556
        k(   53) = (   0.5000000  -0.1666667   0.6666667), wk =   0.0555556
        k(   54) = (   0.4166667  -0.0833333   0.5833333), wk =   0.0555556
        k(   55) = (   0.3333333  -0.0000000   0.5000000), wk =   0.0277778
        k(   56) = (  -0.1666667   0.6666667   0.0000000), wk =   0.0277778
        k(   57) = (   0.7500000  -0.2500000   0.9166667), wk =   0.0555556
        k(   58) = (   0.6666667  -0.1666667   0.8333333), wk =   0.0555556
        k(   59) = (   0.5833333  -0.0833333   0.7500000), wk =   0.0555556
        k(   60) = (   0.5000000   0.0000000   0.6666667), wk =   0.0277778
        k(   61) = (   0.8333333  -0.1666667   1.0000000), wk =   0.0277778
        k(   62) = (   0.7500000  -0.0833333   0.9166667), wk =   0.0555556
        k(   63) = (   0.6666667  -0.0000000   0.8333333), wk =   0.0277778
        k(   64) = (  -0.1666667  -1.0000000   0.0000000), wk =   0.0138889
        k(   65) = (   0.6666667  -0.3333333   1.0000000), wk =   0.0277778
        k(   66) = (   0.5833333  -0.2500000   0.9166667), wk =   0.0555556
        k(   67) = (   0.5000000  -0.1666667   0.8333333), wk =   0.0277778
        k(   68) = (   0.6666667  -0.1666667   1.0000000), wk =   0.0277778
        k(   69) = (   0.5833333  -0.0833333   0.9166667), wk =   0.0555556
        k(   70) = (   0.5000000  -0.0000000   0.8333333), wk =   0.0277778
        k(   71) = (  -0.3333333  -1.0000000   0.0000000), wk =   0.0138889
        k(   72) = (  -0.5000000  -1.0000000   0.0000000), wk =   0.0069444

     PseudoPot. # 1 for Ga read from file:
     ./Ga.pbe-dn-kjpaw_psl.0.2.upf
     MD5 check sum: f703b3f64ba021741ea9c16c693bf590
     Pseudo is Projector augmented-wave + core cor, Zval = 13.0
     Generated using "atomic" code by A. Dal Corso  v.5.0.99 svn rev. 10869
     Shape of augmentation charge: BESSEL
     Using radial grid of 1205 points,  6 beta functions with: 
                l(1) =   0
                l(2) =   0
                l(3) =   1
                l(4) =   1
                l(5) =   2
                l(6) =   2
     Q(r) pseudized with 0 coefficients 


     PseudoPot. # 2 for As read from file:
     ./As.pbe-n-kjpaw_psl.0.2.upf
     MD5 check sum: 076d91deeb42e24e5cc35739acc2a16c
     Pseudo is Projector augmented-wave + core cor, Zval =  5.0
     Generated using "atomic" code by A. Dal Corso  v.5.0.99 svn rev. 10869
     Shape of augmentation charge: PSQ
     Using radial grid of 1209 points,  4 beta functions with: 
                l(1) =   0
                l(2) =   0
                l(3) =   1
                l(4) =   1
     Q(r) pseudized with 0 coefficients 


     Mode symmetry, T_d (-43m)  point group:


     Electric field:
     Dielectric constant
     Born effective charges as d Force / d E


     Atomic displacements:
     There are    2 irreducible representations

     Representation     1      3 modes -  To be done

     Representation     2      3 modes -  To be done



     Alpha used in Ewald sum =   2.8000
     PHONON       :      2.74s CPU      4.43s WALL


     Electric Fields Calculation

      iter #   1 total cpu time :    19.8 secs   av.it.:   5.4
      thresh= 1.000E-02 alpha_mix =  0.700 |ddv_scf|^2 =  2.332E-08

      iter #   2 total cpu time :    29.0 secs   av.it.:  11.7
      thresh= 1.527E-05 alpha_mix =  0.700 |ddv_scf|^2 =  1.699E-09

      iter #   3 total cpu time :    38.0 secs   av.it.:  11.2
      thresh= 4.122E-06 alpha_mix =  0.700 |ddv_scf|^2 =  1.360E-10

      iter #   4 total cpu time :    47.1 secs   av.it.:  11.4
      thresh= 1.166E-06 alpha_mix =  0.700 |ddv_scf|^2 =  1.764E-12

      iter #   5 total cpu time :    57.1 secs   av.it.:  11.6
      thresh= 1.328E-07 alpha_mix =  0.700 |ddv_scf|^2 =  6.315E-15

      iter #   6 total cpu time :    65.6 secs   av.it.:  11.7
      thresh= 7.947E-09 alpha_mix =  0.700 |ddv_scf|^2 =  3.740E-16

      iter #   7 total cpu time :    74.2 secs   av.it.:  11.4
      thresh= 1.934E-09 alpha_mix =  0.700 |ddv_scf|^2 =  4.732E-18

     End of electric fields calculation

          Dielectric constant in cartesian axis 

          (      17.837485481       0.000000000       0.000000000 )
          (       0.000000000      17.837485481       0.000000000 )
          (      -0.000000000       0.000000000      17.837485481 )

          Effective charges (d Force / dE) in cartesian axis without acoustic sum rule applied (asr)

           atom    1  Ga    Mean Z*:        2.13960
      Ex  (        2.13960       -0.00000        0.00000 )
      Ey  (        0.00000        2.13960        0.00000 )
      Ez  (        0.00000        0.00000        2.13960 )
           atom    2  As    Mean Z*:       -2.18087
      Ex  (       -2.18087       -0.00000       -0.00000 )
      Ey  (       -0.00000       -2.18087        0.00000 )
      Ez  (       -0.00000       -0.00000       -2.18087 )

          Effective charges Sum: Mean:       -0.04126
             -0.04126       -0.00000       -0.00000
             -0.00000       -0.04126        0.00000
             -0.00000        0.00000       -0.04126

          Effective charges (d Force / dE) in cartesian axis with asr applied: 
           atom    1  Ga    Mean Z*:        2.16024
      E*x (        2.16024        0.00000        0.00000 )
      E*y (        0.00000        2.16024        0.00000 )
      E*z (        0.00000        0.00000        2.16024 )
           atom    2  As    Mean Z*:       -2.16024
      E*x (       -2.16024       -0.00000       -0.00000 )
      E*y (       -0.00000       -2.16024       -0.00000 )
      E*z (       -0.00000       -0.00000       -2.16024 )


     Representation #   1 modes #   1   2   3

     Self-consistent Calculation

      iter #   1 total cpu time :    85.6 secs   av.it.:   4.7
      thresh= 1.000E-02 alpha_mix =  0.700 |ddv_scf|^2 =  6.433E-09

      iter #   2 total cpu time :    95.4 secs   av.it.:  12.0
      thresh= 8.021E-06 alpha_mix =  0.700 |ddv_scf|^2 =  2.458E-10

      iter #   3 total cpu time :   104.1 secs   av.it.:  11.8
      thresh= 1.568E-06 alpha_mix =  0.700 |ddv_scf|^2 =  2.152E-11

      iter #   4 total cpu time :   113.5 secs   av.it.:  11.7
      thresh= 4.639E-07 alpha_mix =  0.700 |ddv_scf|^2 =  3.528E-13

      iter #   5 total cpu time :   122.8 secs   av.it.:  12.0
      thresh= 5.940E-08 alpha_mix =  0.700 |ddv_scf|^2 =  5.146E-15

      iter #   6 total cpu time :   131.5 secs   av.it.:  11.9
      thresh= 7.174E-09 alpha_mix =  0.700 |ddv_scf|^2 =  2.109E-16

      iter #   7 total cpu time :   140.4 secs   av.it.:  11.9
      thresh= 1.452E-09 alpha_mix =  0.700 |ddv_scf|^2 =  2.485E-18

     End of self-consistent calculation

     Convergence has been achieved 


     Representation #   2 modes #   4   5   6

     Self-consistent Calculation

      iter #   1 total cpu time :   147.7 secs   av.it.:   6.7
      thresh= 1.000E-02 alpha_mix =  0.700 |ddv_scf|^2 =  4.586E-07

      iter #   2 total cpu time :   157.0 secs   av.it.:  12.4
      thresh= 6.772E-05 alpha_mix =  0.700 |ddv_scf|^2 =  9.563E-09

      iter #   3 total cpu time :   165.8 secs   av.it.:  12.0
      thresh= 9.779E-06 alpha_mix =  0.700 |ddv_scf|^2 =  2.966E-10

      iter #   4 total cpu time :   176.2 secs   av.it.:  11.4
      thresh= 1.722E-06 alpha_mix =  0.700 |ddv_scf|^2 =  2.428E-12

      iter #   5 total cpu time :   185.0 secs   av.it.:  11.9
      thresh= 1.558E-07 alpha_mix =  0.700 |ddv_scf|^2 =  9.985E-14

      iter #   6 total cpu time :   193.9 secs   av.it.:  11.7
      thresh= 3.160E-08 alpha_mix =  0.700 |ddv_scf|^2 =  5.018E-15

      iter #   7 total cpu time :   202.7 secs   av.it.:  11.5
      thresh= 7.084E-09 alpha_mix =  0.700 |ddv_scf|^2 =  4.102E-17

     End of self-consistent calculation

     Convergence has been achieved 
 
     Number of q in the star =    1
     List of q in the star:
          1   0.000000000   0.000000000   0.000000000

          Dielectric constant in cartesian axis 

          (      17.837485481       0.000000000       0.000000000 )
          (       0.000000000      17.837485481       0.000000000 )
          (      -0.000000000       0.000000000      17.837485481 )

          Effective charges (d Force / dE) in cartesian axis without acoustic sum rule applied (asr)

           atom    1  Ga    Mean Z*:        2.13960
      Ex  (        2.13960       -0.00000        0.00000 )
      Ey  (        0.00000        2.13960        0.00000 )
      Ez  (        0.00000        0.00000        2.13960 )
           atom    2  As    Mean Z*:       -2.18087
      Ex  (       -2.18087       -0.00000       -0.00000 )
      Ey  (       -0.00000       -2.18087        0.00000 )
      Ez  (       -0.00000       -0.00000       -2.18087 )

          Effective charges Sum: Mean:       -0.04126
             -0.04126       -0.00000       -0.00000
             -0.00000       -0.04126        0.00000
             -0.00000        0.00000       -0.04126

          Effective charges (d Force / dE) in cartesian axis with asr applied: 
           atom    1  Ga    Mean Z*:        2.16024
      E*x (        2.16024        0.00000        0.00000 )
      E*y (        0.00000        2.16024        0.00000 )
      E*z (        0.00000        0.00000        2.16024 )
           atom    2  As    Mean Z*:       -2.16024
      E*x (       -2.16024       -0.00000       -0.00000 )
      E*y (       -0.00000       -2.16024       -0.00000 )
      E*z (       -0.00000       -0.00000       -2.16024 )

     Diagonalizing the dynamical matrix

     q = (    0.000000000   0.000000000   0.000000000 ) 

 **************************************************************************
     freq (    1) =      -0.105349 [THz] =      -3.514061 [cm-1]
     freq (    2) =      -0.105349 [THz] =      -3.514061 [cm-1]
     freq (    3) =      -0.105349 [THz] =      -3.514061 [cm-1]
     freq (    4) =       8.084680 [THz] =     269.675882 [cm-1]
     freq (    5) =       8.084680 [THz] =     269.675882 [cm-1]
     freq (    6) =       8.084680 [THz] =     269.675882 [cm-1]
 **************************************************************************

     Mode symmetry, T_d (-43m)  point group:

     freq (   1-   3) =         -3.5  [cm-1]   --> T_2  G_15 P_4   I+R
     freq (   4-   6) =        269.7  [cm-1]   --> T_2  G_15 P_4   I+R
 
     PHONON       :   3m 7.83s CPU   3m23.43s WALL

     INITIALIZATION: 
     phq_setup    :      0.06s CPU      0.09s WALL (       1 calls)
     phq_init     :      1.17s CPU      1.30s WALL (       1 calls)
 
     phq_init     :      1.17s CPU      1.30s WALL (       1 calls)
     set_drhoc    :      0.06s CPU      0.06s WALL (       3 calls)
     init_vloc    :      0.00s CPU      0.01s WALL (       1 calls)
     init_us_1    :      0.13s CPU      0.15s WALL (       1 calls)
     init_us_2    :      0.11s CPU      0.14s WALL (     612 calls)
     newd         :      0.01s CPU      0.02s WALL (       1 calls)
     dvanqq       :      0.35s CPU      0.35s WALL (       1 calls)
     drho         :      0.63s CPU      0.70s WALL (       1 calls)
     drhous       :      0.48s CPU      0.53s WALL (       1 calls)
     nldyntot     :      0.02s CPU      0.02s WALL (       1 calls)
     cmpt_qdipol  :      0.00s CPU      0.00s WALL (       1 calls)
 
     DIELECTRIC CONSTANT AND EFFECTIVE CHARGES:
     solve_e      :     65.03s CPU     69.82s WALL (       1 calls)
     dielec       :      0.02s CPU      0.03s WALL (       1 calls)
     zstar_eu     :      4.62s CPU      4.86s WALL (       1 calls)
 
     DYNAMICAL MATRIX:
     dynmat0      :      0.10s CPU      0.13s WALL (       1 calls)
     dynmat_us    :      0.07s CPU      0.08s WALL (       1 calls)
     addusdynmat  :      0.00s CPU      0.00s WALL (       1 calls)
     d2ionq       :      0.00s CPU      0.00s WALL (       1 calls)
     dynmatcc     :      0.02s CPU      0.02s WALL (       1 calls)
     phqscf       :    115.37s CPU    123.80s WALL (       1 calls)
     dynmatrix    :      0.00s CPU      0.12s WALL (       1 calls)
 
     phqscf       :    115.37s CPU    123.80s WALL (       1 calls)
     solve_linter :    115.22s CPU    123.49s WALL (       2 calls)
     dfpt_kernel  :    170.94s CPU    183.12s WALL (       3 calls)
     sth_kernel   :    110.87s CPU    119.87s WALL (      21 calls)
     h_prec       :      0.04s CPU      0.05s WALL (     432 calls)
     apply_dpot_b :      5.65s CPU      6.16s WALL (     972 calls)
     ortho        :      0.68s CPU      0.75s WALL (    1188 calls)
     cgsolve      :    102.85s CPU    110.89s WALL (    1188 calls)
     incdrhoscf   :      7.34s CPU      8.07s WALL (    1188 calls)
                                        0.00s GPU  (    1188 calls)
     addusddens   :      0.80s CPU      0.81s WALL (      16 calls)
     dv_of_drho   :      0.95s CPU      0.99s WALL (      66 calls)
     mix_pot      :      0.37s CPU      1.45s WALL (      21 calls)
     drhodv       :      0.15s CPU      0.17s WALL (       2 calls)
     psymdvscf    :     41.60s CPU     42.47s WALL (      22 calls)
     newdq        :      2.39s CPU      2.39s WALL (      21 calls)
     adddvscf     :      0.17s CPU      0.18s WALL (     972 calls)
     com_dvloc    :      0.14s CPU      0.16s WALL (     234 calls)
                                        0.00s GPU  (     234 calls)
     addcore      :      0.07s CPU      0.07s WALL (      66 calls)
                                        0.00s GPU  (      66 calls)
     drhodvus     :      0.01s CPU      0.01s WALL (       2 calls)
 
     dvqpsi_us    :      1.59s CPU      1.70s WALL (     216 calls)
                                        0.00s GPU  (     216 calls)
     dvqpsi_us_on :      0.31s CPU      0.32s WALL (     216 calls)
 
     add_vuspsi   :      2.06s CPU      2.25s WALL (   19972 calls)
     addusdbec    :      0.37s CPU      0.39s WALL (    1296 calls)
 
     drhodvus     :      0.01s CPU      0.01s WALL (       2 calls)
 
      General routines
     calbec       :      8.90s CPU      9.77s WALL (   45740 calls)
     fft          :      1.22s CPU      1.98s WALL (    1280 calls)
     ffts         :      0.19s CPU      0.22s WALL (     370 calls)
     fftw         :     84.23s CPU     90.71s WALL (  303718 calls)
     davcio       :      0.69s CPU      1.69s WALL (    5640 calls)
     write_rec    :      0.12s CPU      1.18s WALL (      23 calls)
 
      Additional routines
     ch_psi       :    100.00s CPU    107.66s WALL (   19972 calls)
     last         :     10.87s CPU     11.92s WALL (   19972 calls)
     Hesh         :      0.22s CPU      0.26s WALL (   19972 calls)
     ch_psi_all_k :     10.13s CPU     11.10s WALL (   19972 calls)
                                        0.00s GPU  (   19972 calls)
     ch_psi_calbe :      3.39s CPU      3.63s WALL (   19972 calls)
                                        0.00s GPU  (   19972 calls)
     h_psi_bgrp   :     86.37s CPU     92.76s WALL (   19972 calls)
     h_psi        :     86.11s CPU     92.47s WALL (   19972 calls)
     h_psi:pot    :     85.69s CPU     91.99s WALL (   19972 calls)
     h_psi:calbec :      4.99s CPU      5.33s WALL (   19972 calls)
     s_psi_bgrp   :      4.38s CPU      4.80s WALL (   41186 calls)
     s_psi        :      3.65s CPU      4.02s WALL (   41186 calls)
 
 
     PHONON       :   3m 7.83s CPU   3m23.43s WALL

 
   This run was terminated on:  18: 1: 5  20Jun2026            

=------------------------------------------------------------------------------=
   JOB DONE.
=------------------------------------------------------------------------------=
