
     Program PWSCF v.7.5 starts on 21Jun2026 at 16:19: 0 

     This program is part of the open-source Quantum ESPRESSO suite
     for quantum simulation of materials; please cite
         "P. Giannozzi et al., J. Phys.:Condens. Matter 21 395502 (2009);
         "P. Giannozzi et al., J. Phys.:Condens. Matter 29 465901 (2017);
         "P. Giannozzi et al., J. Chem. Phys. 152 154105 (2020);
          URL http://www.quantum-espresso.org", 
     in publications or presentations arising from this work. More details at
     http://www.quantum-espresso.org/quote

     Parallel version (MPI), running on   136 processors

     MPI processes distributed on     2 nodes
     74133 MiB available memory on the printing compute node when the environment starts
 
     Waiting for input...
     Reading input from standard input

     Current dimensions of program PWSCF are:
     Max number of different atomic species (ntypx) = 10
     Max number of k-points (npk) =  40000
     Max angular momentum in pseudopotentials (lmaxx) =  4
     file Nb.pbe-spn-kjpaw_psl.1.0.0.UPF: wavefunction(s)  4S 4P 4D renormalized
     file Se.pbe-n-kjpaw_psl.1.0.0.UPF: wavefunction(s)  4S renormalized
     Message from routine setup:
     using ibrav=0 with symmetry is DISCOURAGED, use correct ibrav instead
 
     K-points division:     npool     =       4
     R & G space division:  proc/nbgrp/npool/nimage =      34
     Subspace diagonalization in iterative solution of the eigenvalue problem:
     a serial algorithm will be used

 
     Parallelization info
     --------------------
     sticks:   dense  smooth     PW     G-vecs:    dense   smooth      PW
     Min         377     189     49                72901    25777    3444
     Max         378     190     52                72910    25783    3457
     Sum       12823    6433   1675              2478775   876529  117375
 
     Using Slab Decomposition
 


     bravais-lattice index     =            0
     lattice parameter (alat)  =      19.6883  a.u.
     unit-cell volume          =   13956.2510 (a.u.)^3
     number of atoms/cell      =           27
     number of atomic types    =            2
     number of electrons       =       225.00
     number of Kohn-Sham states=          136
     kinetic-energy cutoff     =      60.0000  Ry
     charge density cutoff     =     480.0000  Ry
     scf convergence threshold =      1.0E-12
     mixing beta               =       0.7000
     number of iterations used =            8  plain     mixing
     energy convergence thresh.=      1.0E-06
     force convergence thresh. =      1.0E-05
     Exchange-correlation= SLA  PW   PBX  PBC
                           (   1   4   3   4   0   0   0)
     nstep                     =           50


     celldm(1)=  19.688304  celldm(2)=   0.000000  celldm(3)=   0.000000
     celldm(4)=   0.000000  celldm(5)=   0.000000  celldm(6)=   0.000000

     crystal axes: (cart. coord. in units of alat)
               a(1) = (   1.000000   0.000000   0.000000 )  
               a(2) = (  -0.500000   0.866025   0.000000 )  
               a(3) = (   0.000000   0.000000   2.111608 )  

     reciprocal axes: (cart. coord. in units 2 pi/alat)
               b(1) = (  1.000000  0.577350  0.000000 )  
               b(2) = (  0.000000  1.154701  0.000000 )  
               b(3) = (  0.000000  0.000000  0.473573 )  


     PseudoPot. # 1 for Nb read from file:
     ../pseudos/Nb.pbe-spn-kjpaw_psl.1.0.0.UPF
     MD5 check sum: dcedcbb129af9a7271e4748e5febedb1
     Pseudo is Projector augmented-wave + core cor, Zval = 13.0
     Generated using &quot;atomic&quot; code by A. Dal Corso  v.6.2.2
     Shape of augmentation charge: PSQ
     Using radial grid of 1227 points,  6 beta functions with: 
                l(1) =   0
                l(2) =   0
                l(3) =   1
                l(4) =   1
                l(5) =   2
                l(6) =   2
     Q(r) pseudized with 0 coefficients 


     PseudoPot. # 2 for Se read from file:
     ../pseudos/Se.pbe-n-kjpaw_psl.1.0.0.UPF
     MD5 check sum: 12232cb78b362a7b0fca8da9cb95fd5e
     Pseudo is Projector augmented-wave + core cor, Zval =  6.0
     Generated using &quot;atomic&quot; code by A. Dal Corso  v.6.3
     Shape of augmentation charge: PSQ
     Using radial grid of 1211 points,  4 beta functions with: 
                l(1) =   0
                l(2) =   0
                l(3) =   1
                l(4) =   1
     Q(r) pseudized with 0 coefficients 


     atomic species   valence    mass     pseudopotential
     Nb               13.00    92.90638     Nb( 1.00)
     Se                6.00    78.97100     Se( 1.00)

      2 Sym. Ops. (no inversion) found


                                    s                        frac. trans.

      isym =  1     identity                                     

 cryst.   s( 1) = (     1          0          0      )
                  (     0          1          0      )
                  (     0          0          1      )

 cart.    s( 1) = (  1.0000000  0.0000000  0.0000000 )
                  (  0.0000000  1.0000000  0.0000000 )
                  (  0.0000000  0.0000000  1.0000000 )


      isym =  2     inv. 180 deg rotation - cart. axis [0,0,1]   

 cryst.   s( 2) = (     1          0          0      )
                  (     0          1          0      )
                  (     0          0         -1      )

 cart.    s( 2) = (  1.0000000  0.0000000  0.0000000 )
                  (  0.0000000  1.0000000  0.0000000 )
                  (  0.0000000  0.0000000 -1.0000000 )


   Cartesian axes

     site n.     atom                  positions (alat units)
         1        Nb     tau(   1) = (   0.0000000   0.1924501   0.0000000  )
         2        Se     tau(   2) = (   0.1666667   0.0962250   0.1534825  )
         3        Se     tau(   3) = (   0.1666667   0.0962250  -0.1534825  )
         4        Nb     tau(   4) = (  -0.1735728   0.4858063   0.0000000  )
         5        Se     tau(   5) = (  -0.0006666   0.3849231   0.1587729  )
         6        Se     tau(   6) = (  -0.0006666   0.3849231  -0.1587729  )
         7        Nb     tau(   7) = (  -0.3358003   0.7742190   0.0000000  )
         8        Se     tau(   8) = (  -0.1666190   0.6731212   0.1648645  )
         9        Se     tau(   9) = (  -0.1666190   0.6731212  -0.1648645  )
        10        Nb     tau(  10) = (   0.3415644   0.1917262   0.0000000  )
        11        Se     tau(  11) = (   0.4993209   0.0980386   0.1613383  )
        12        Se     tau(  12) = (   0.4993209   0.0980386  -0.1613383  )
        13        Nb     tau(  13) = (   0.1632478   0.4784557   0.0000000  )
        14        Se     tau(  14) = (   0.3338977   0.3869670   0.1631752  )
        15        Se     tau(  15) = (   0.3338977   0.3869670  -0.1631752  )
        16        Nb     tau(  16) = (  -0.0072102   0.7634648   0.0000000  )
        17        Se     tau(  17) = (   0.1686246   0.6739387   0.1633504  )
        18        Se     tau(  18) = (   0.1686246   0.6739387  -0.1633504  )
        19        Nb     tau(  19) = (   0.6714168   0.1856794   0.0000000  )
        20        Se     tau(  20) = (   0.8314247   0.0959063   0.1613383  )
        21        Se     tau(  21) = (   0.8314247   0.0959063  -0.1613383  )
        22        Nb     tau(  22) = (   0.5013323   0.4842957   0.0000000  )
        23        Se     tau(  23) = (   0.6653219   0.3836442   0.1639568  )
        24        Se     tau(  24) = (   0.6653219   0.3836442  -0.1639568  )
        25        Nb     tau(  25) = (   0.3343569   0.7767181   0.0000000  )
        26        Se     tau(  26) = (   0.5012785   0.6717700   0.1627460  )
        27        Se     tau(  27) = (   0.5012785   0.6717700  -0.1627460  )

   Crystallographic axes

     site n.     atom                  positions (cryst. coord.)
         1        Nb     tau(   1) = (  0.1111111  0.2222222  0.0000000  )
         2        Se     tau(   2) = (  0.2222222  0.1111111  0.0726851  )
         3        Se     tau(   3) = (  0.2222222  0.1111111 -0.0726851  )
         4        Nb     tau(   4) = (  0.1069076  0.5609608  0.0000000  )
         5        Se     tau(   5) = (  0.2215689  0.4444709  0.0751905  )
         6        Se     tau(   6) = (  0.2215689  0.4444709 -0.0751905  )
         7        Nb     tau(   7) = (  0.1111953  0.8939911  0.0000000  )
         8        Se     tau(   8) = (  0.2220077  0.7772534  0.0780753  )
         9        Se     tau(   9) = (  0.2220077  0.7772534 -0.0780753  )
        10        Nb     tau(  10) = (  0.4522576  0.2213863  0.0000000  )
        11        Se     tau(  11) = (  0.5559235  0.1132052  0.0764054  )
        12        Se     tau(  12) = (  0.5559235  0.1132052 -0.0764054  )
        13        Nb     tau(  13) = (  0.4394844  0.5524731  0.0000000  )
        14        Se     tau(  14) = (  0.5573132  0.4468310  0.0772753  )
        15        Se     tau(  15) = (  0.5573132  0.4468310 -0.0772753  )
        16        Nb     tau(  16) = (  0.4335764  0.8815733  0.0000000  )
        17        Se     tau(  17) = (  0.5577233  0.7781974  0.0773583  )
        18        Se     tau(  18) = (  0.5577233  0.7781974 -0.0773583  )
        19        Nb     tau(  19) = (  0.7786188  0.2144041  0.0000000  )
        20        Se     tau(  20) = (  0.8867962  0.1107431  0.0764054  )
        21        Se     tau(  21) = (  0.8867962  0.1107431 -0.0764054  )
        22        Nb     tau(  22) = (  0.7809406  0.5592165  0.0000000  )
        23        Se     tau(  23) = (  0.8868190  0.4429941  0.0776455  )
        24        Se     tau(  24) = (  0.8868190  0.4429941 -0.0776455  )
        25        Nb     tau(  25) = (  0.7827953  0.8968768  0.0000000  )
        26        Se     tau(  26) = (  0.8891251  0.7756931  0.0770721  )
        27        Se     tau(  27) = (  0.8891251  0.7756931 -0.0770721  )

     number of k points=    10  Marzari-Vanderbilt smearing, width (Ry)=  0.0100
                       cart. coord. in units 2pi/alat
        k(    1) = (   0.0000000   0.0000000   0.0000000), wk =   0.1250000
        k(    2) = (   0.0000000   0.2886751   0.0000000), wk =   0.2500000
        k(    3) = (   0.0000000  -0.5773503   0.0000000), wk =   0.1250000
        k(    4) = (   0.2500000   0.4330127   0.0000000), wk =   0.2500000
        k(    5) = (  -0.2500000   0.1443376   0.0000000), wk =   0.2500000
        k(    6) = (   0.2500000   0.1443376   0.0000000), wk =   0.2500000
        k(    7) = (   0.5000000  -0.2886751   0.0000000), wk =   0.1250000
        k(    8) = (  -0.5000000  -0.2886751   0.0000000), wk =   0.1250000
        k(    9) = (  -0.2500000   0.4330127   0.0000000), wk =   0.2500000
        k(   10) = (   0.5000000  -0.0000000   0.0000000), wk =   0.2500000

                       cryst. coord.
        k(    1) = (   0.0000000   0.0000000   0.0000000), wk =   0.1250000
        k(    2) = (   0.0000000   0.2500000   0.0000000), wk =   0.2500000
        k(    3) = (   0.0000000  -0.5000000   0.0000000), wk =   0.1250000
        k(    4) = (   0.2500000   0.2500000   0.0000000), wk =   0.2500000
        k(    5) = (  -0.2500000   0.2500000   0.0000000), wk =   0.2500000
        k(    6) = (   0.2500000  -0.0000000   0.0000000), wk =   0.2500000
        k(    7) = (   0.5000000  -0.5000000   0.0000000), wk =   0.1250000
        k(    8) = (  -0.5000000   0.0000000   0.0000000), wk =   0.1250000
        k(    9) = (  -0.2500000   0.5000000   0.0000000), wk =   0.2500000
        k(   10) = (   0.5000000  -0.2500000   0.0000000), wk =   0.2500000

     Dense  grid:  2478775 G-vectors     FFT dimensions: ( 144, 144, 300)

     Smooth grid:   876529 G-vectors     FFT dimensions: ( 100, 100, 216)

     Dynamical RAM for                 wfc:       6.68 MB

     Dynamical RAM for     wfc (w. buffer):      26.74 MB

     Dynamical RAM for           str. fact:       2.22 MB

     Dynamical RAM for           local pot:       0.00 MB

     Dynamical RAM for          nlocal pot:      15.04 MB

     Dynamical RAM for                qrad:       3.52 MB

     Dynamical RAM for          rho,v,vnew:       7.61 MB

     Dynamical RAM for               rhoin:       2.54 MB

     Dynamical RAM for            rho*nmix:      17.80 MB

     Dynamical RAM for           G-vectors:       4.37 MB

     Dynamical RAM for          h,s,v(r/c):       3.39 MB

     Dynamical RAM for          <psi|beta>:       0.64 MB

     Dynamical RAM for                 psi:      13.37 MB

     Dynamical RAM for                hpsi:      13.37 MB

     Dynamical RAM for                spsi:      13.37 MB

     Dynamical RAM for      wfcinit/wfcrot:      13.79 MB

     Dynamical RAM for           addusdens:      57.56 MB

     Dynamical RAM for          addusforce:      66.81 MB

     Estimated static dynamical RAM per process >      72.49 MB

     Estimated max dynamical RAM per process >     157.10 MB

     Estimated total dynamical RAM >      19.09 GB
 ----2D----2D----2D----2D----2D----2D----2D----2D----2D----2D----2D----2D
  The code is running with the 2D cutoff
  Please refer to:
  Sohier, T., Calandra, M., & Mauri, F. (2017), 
  Density functional perturbation theory for gated two-dimensional heterostructu
 res:
  Theoretical developments and application to flexural phonons in graphene.
  Physical Review B, 96(7), 75448. https://doi.org/10.1103/PhysRevB.96.075448
 ----2D----2D----2D----2D----2D----2D----2D----2D----2D----2D----2D----2D

     Initial potential from superposition of free atoms

     starting charge     224.9869, renormalised to     225.0000

     negative rho (up, down):  1.386E-03 0.000E+00
     Starting wfcs are  189 randomized atomic wfcs
     Checking if some PAW data can be deallocated... 
       PAW data deallocated on   90 nodes for type:  1
       PAW data deallocated on   46 nodes for type:  2

     total cpu time spent up to now is       11.7 secs

     Self-consistent Calculation

     iteration #  1     ecut=    60.00 Ry     beta= 0.70
     Davidson diagonalization with overlap

---- Real-time Memory Report at c_bands before calling an iterative solver
           775 MiB given to the printing process from OS
             0 MiB allocation reported by mallinfo(arena+hblkhd)
         29188 MiB available memory on the node where the printing process lives
------------------
     ethr =  1.00E-02,  avg # of iterations =  2.0

     Threshold (ethr) on eigenvalues was too large:
     Diagonalizing with lowered threshold

     Davidson diagonalization with overlap

---- Real-time Memory Report at c_bands before calling an iterative solver
           813 MiB given to the printing process from OS
             0 MiB allocation reported by mallinfo(arena+hblkhd)
         29719 MiB available memory on the node where the printing process lives
------------------
     ethr =  2.67E-04,  avg # of iterations =  4.0

     negative rho (up, down):  1.219E-03 0.000E+00

     total cpu time spent up to now is       39.3 secs

     total energy              =   -6417.64708179 Ry
     estimated scf accuracy    <       0.82263930 Ry

     iteration #  2     ecut=    60.00 Ry     beta= 0.70
     Davidson diagonalization with overlap

---- Real-time Memory Report at c_bands before calling an iterative solver
           853 MiB given to the printing process from OS
             0 MiB allocation reported by mallinfo(arena+hblkhd)
         27717 MiB available memory on the node where the printing process lives
------------------
     ethr =  3.66E-04,  avg # of iterations =  3.8

     negative rho (up, down):  1.264E-03 0.000E+00

     total cpu time spent up to now is       54.8 secs

     total energy              =   -6417.26624535 Ry
     estimated scf accuracy    <       2.95194488 Ry

     iteration #  3     ecut=    60.00 Ry     beta= 0.70
     Davidson diagonalization with overlap

---- Real-time Memory Report at c_bands before calling an iterative solver
           869 MiB given to the printing process from OS
             0 MiB allocation reported by mallinfo(arena+hblkhd)
         26989 MiB available memory on the node where the printing process lives
------------------
     ethr =  3.66E-04,  avg # of iterations =  9.2

     negative rho (up, down):  1.232E-03 0.000E+00

     total cpu time spent up to now is       73.2 secs

     total energy              =   -6417.53319391 Ry
     estimated scf accuracy    <       4.23065246 Ry

     iteration #  4     ecut=    60.00 Ry     beta= 0.70
     Davidson diagonalization with overlap

---- Real-time Memory Report at c_bands before calling an iterative solver
           870 MiB given to the printing process from OS
             0 MiB allocation reported by mallinfo(arena+hblkhd)
         26885 MiB available memory on the node where the printing process lives
------------------
     ethr =  3.66E-04,  avg # of iterations =  8.4

     negative rho (up, down):  1.197E-03 0.000E+00

     total cpu time spent up to now is       91.6 secs

     total energy              =   -6417.82764814 Ry
     estimated scf accuracy    <       0.79835994 Ry

     iteration #  5     ecut=    60.00 Ry     beta= 0.70
     Davidson diagonalization with overlap

---- Real-time Memory Report at c_bands before calling an iterative solver
           871 MiB given to the printing process from OS
             0 MiB allocation reported by mallinfo(arena+hblkhd)
         26862 MiB available memory on the node where the printing process lives
------------------
     ethr =  3.55E-04,  avg # of iterations =  2.5

     negative rho (up, down):  1.178E-03 0.000E+00

     total cpu time spent up to now is      105.5 secs

     total energy              =   -6417.87839882 Ry
     estimated scf accuracy    <       0.38656783 Ry

     iteration #  6     ecut=    60.00 Ry     beta= 0.70
     Davidson diagonalization with overlap

---- Real-time Memory Report at c_bands before calling an iterative solver
           872 MiB given to the printing process from OS
             0 MiB allocation reported by mallinfo(arena+hblkhd)
         26806 MiB available memory on the node where the printing process lives
------------------
     ethr =  1.72E-04,  avg # of iterations =  2.0

     negative rho (up, down):  1.164E-03 0.000E+00

     total cpu time spent up to now is      116.5 secs

     total energy              =   -6417.92125346 Ry
     estimated scf accuracy    <       0.08349051 Ry

     iteration #  7     ecut=    60.00 Ry     beta= 0.70
     Davidson diagonalization with overlap

---- Real-time Memory Report at c_bands before calling an iterative solver
           875 MiB given to the printing process from OS
             0 MiB allocation reported by mallinfo(arena+hblkhd)
         26770 MiB available memory on the node where the printing process lives
------------------
     ethr =  3.71E-05,  avg # of iterations =  7.9

     negative rho (up, down):  1.186E-03 0.000E+00

     total cpu time spent up to now is      133.0 secs

     total energy              =   -6417.92682712 Ry
     estimated scf accuracy    <       0.02959250 Ry

     iteration #  8     ecut=    60.00 Ry     beta= 0.70
     Davidson diagonalization with overlap

---- Real-time Memory Report at c_bands before calling an iterative solver
           876 MiB given to the printing process from OS
             0 MiB allocation reported by mallinfo(arena+hblkhd)
         26696 MiB available memory on the node where the printing process lives
------------------
     ethr =  1.32E-05,  avg # of iterations = 10.2

     negative rho (up, down):  1.214E-03 0.000E+00

     total cpu time spent up to now is      151.8 secs

     total energy              =   -6417.92938714 Ry
     estimated scf accuracy    <       0.02463479 Ry

     iteration #  9     ecut=    60.00 Ry     beta= 0.70
     Davidson diagonalization with overlap

---- Real-time Memory Report at c_bands before calling an iterative solver
           876 MiB given to the printing process from OS
             0 MiB allocation reported by mallinfo(arena+hblkhd)
         26660 MiB available memory on the node where the printing process lives
------------------
     ethr =  1.09E-05,  avg # of iterations =  2.4

     negative rho (up, down):  1.259E-03 0.000E+00

     total cpu time spent up to now is      165.1 secs

     total energy              =   -6417.93086619 Ry
     estimated scf accuracy    <       0.00929178 Ry

     iteration # 10     ecut=    60.00 Ry     beta= 0.70
     Davidson diagonalization with overlap

---- Real-time Memory Report at c_bands before calling an iterative solver
           878 MiB given to the printing process from OS
             0 MiB allocation reported by mallinfo(arena+hblkhd)
         26626 MiB available memory on the node where the printing process lives
------------------
     ethr =  4.13E-06,  avg # of iterations =  3.1

     negative rho (up, down):  1.293E-03 0.000E+00

     total cpu time spent up to now is      177.2 secs

     total energy              =   -6417.93152671 Ry
     estimated scf accuracy    <       0.00115889 Ry

     iteration # 11     ecut=    60.00 Ry     beta= 0.70
     Davidson diagonalization with overlap

---- Real-time Memory Report at c_bands before calling an iterative solver
           878 MiB given to the printing process from OS
             0 MiB allocation reported by mallinfo(arena+hblkhd)
         26616 MiB available memory on the node where the printing process lives
------------------
     ethr =  5.15E-07,  avg # of iterations =  9.9

     negative rho (up, down):  1.313E-03 0.000E+00

     total cpu time spent up to now is      198.0 secs

     total energy              =   -6417.93141855 Ry
     estimated scf accuracy    <       0.00734884 Ry

     iteration # 12     ecut=    60.00 Ry     beta= 0.70
     Davidson diagonalization with overlap

---- Real-time Memory Report at c_bands before calling an iterative solver
           879 MiB given to the printing process from OS
             0 MiB allocation reported by mallinfo(arena+hblkhd)
         26607 MiB available memory on the node where the printing process lives
------------------
     ethr =  5.15E-07,  avg # of iterations =  2.5

     negative rho (up, down):  1.327E-03 0.000E+00

     total cpu time spent up to now is      210.2 secs

     total energy              =   -6417.93185083 Ry
     estimated scf accuracy    <       0.00019719 Ry

     iteration # 13     ecut=    60.00 Ry     beta= 0.70
     Davidson diagonalization with overlap

---- Real-time Memory Report at c_bands before calling an iterative solver
           879 MiB given to the printing process from OS
             0 MiB allocation reported by mallinfo(arena+hblkhd)
         26608 MiB available memory on the node where the printing process lives
------------------
     ethr =  8.76E-08,  avg # of iterations =  8.1

     negative rho (up, down):  1.327E-03 0.000E+00

     total cpu time spent up to now is      229.5 secs

     total energy              =   -6417.93172279 Ry
     estimated scf accuracy    <       0.00325132 Ry

     iteration # 14     ecut=    60.00 Ry     beta= 0.70
     Davidson diagonalization with overlap

---- Real-time Memory Report at c_bands before calling an iterative solver
           879 MiB given to the printing process from OS
             0 MiB allocation reported by mallinfo(arena+hblkhd)
         26593 MiB available memory on the node where the printing process lives
------------------
     ethr =  8.76E-08,  avg # of iterations =  4.4

     negative rho (up, down):  1.323E-03 0.000E+00

     total cpu time spent up to now is      244.1 secs

     total energy              =   -6417.93188759 Ry
     estimated scf accuracy    <       0.00008082 Ry

     iteration # 15     ecut=    60.00 Ry     beta= 0.70
     Davidson diagonalization with overlap

---- Real-time Memory Report at c_bands before calling an iterative solver
           879 MiB given to the printing process from OS
             0 MiB allocation reported by mallinfo(arena+hblkhd)
         26586 MiB available memory on the node where the printing process lives
------------------
     ethr =  3.59E-08,  avg # of iterations =  4.5

     negative rho (up, down):  1.326E-03 0.000E+00

     total cpu time spent up to now is      258.3 secs

     total energy              =   -6417.93188360 Ry
     estimated scf accuracy    <       0.00028321 Ry

     iteration # 16     ecut=    60.00 Ry     beta= 0.70
     Davidson diagonalization with overlap

---- Real-time Memory Report at c_bands before calling an iterative solver
           880 MiB given to the printing process from OS
             0 MiB allocation reported by mallinfo(arena+hblkhd)
         26579 MiB available memory on the node where the printing process lives
------------------
     ethr =  3.59E-08,  avg # of iterations =  2.5

     negative rho (up, down):  1.330E-03 0.000E+00

     total cpu time spent up to now is      271.1 secs

     total energy              =   -6417.93189956 Ry
     estimated scf accuracy    <       0.00010136 Ry

     iteration # 17     ecut=    60.00 Ry     beta= 0.70
     Davidson diagonalization with overlap

---- Real-time Memory Report at c_bands before calling an iterative solver
           880 MiB given to the printing process from OS
             0 MiB allocation reported by mallinfo(arena+hblkhd)
         26579 MiB available memory on the node where the printing process lives
------------------
     ethr =  3.59E-08,  avg # of iterations =  1.1

     negative rho (up, down):  1.332E-03 0.000E+00

     total cpu time spent up to now is      283.6 secs

     total energy              =   -6417.93190601 Ry
     estimated scf accuracy    <       0.00001278 Ry

     iteration # 18     ecut=    60.00 Ry     beta= 0.70
     Davidson diagonalization with overlap

---- Real-time Memory Report at c_bands before calling an iterative solver
           880 MiB given to the printing process from OS
             0 MiB allocation reported by mallinfo(arena+hblkhd)
         26589 MiB available memory on the node where the printing process lives
------------------
     ethr =  5.68E-09,  avg # of iterations =  5.0

     negative rho (up, down):  1.332E-03 0.000E+00

     total cpu time spent up to now is      297.8 secs

     total energy              =   -6417.93190542 Ry
     estimated scf accuracy    <       0.00003590 Ry

     iteration # 19     ecut=    60.00 Ry     beta= 0.70
     Davidson diagonalization with overlap

---- Real-time Memory Report at c_bands before calling an iterative solver
           881 MiB given to the printing process from OS
             0 MiB allocation reported by mallinfo(arena+hblkhd)
         26583 MiB available memory on the node where the printing process lives
------------------
     ethr =  5.68E-09,  avg # of iterations =  2.2

     negative rho (up, down):  1.332E-03 0.000E+00

     total cpu time spent up to now is      310.2 secs

     total energy              =   -6417.93190738 Ry
     estimated scf accuracy    <       0.00001100 Ry

     iteration # 20     ecut=    60.00 Ry     beta= 0.70
     Davidson diagonalization with overlap

---- Real-time Memory Report at c_bands before calling an iterative solver
           881 MiB given to the printing process from OS
             0 MiB allocation reported by mallinfo(arena+hblkhd)
         26573 MiB available memory on the node where the printing process lives
------------------
     ethr =  4.89E-09,  avg # of iterations =  1.7

     negative rho (up, down):  1.332E-03 0.000E+00

     total cpu time spent up to now is      321.4 secs

     total energy              =   -6417.93190829 Ry
     estimated scf accuracy    <       0.00000143 Ry

     iteration # 21     ecut=    60.00 Ry     beta= 0.70
     Davidson diagonalization with overlap

---- Real-time Memory Report at c_bands before calling an iterative solver
           881 MiB given to the printing process from OS
             0 MiB allocation reported by mallinfo(arena+hblkhd)
         26568 MiB available memory on the node where the printing process lives
------------------
     ethr =  6.36E-10,  avg # of iterations =  4.6

     negative rho (up, down):  1.333E-03 0.000E+00

     total cpu time spent up to now is      336.4 secs

     total energy              =   -6417.93190845 Ry
     estimated scf accuracy    <       0.00000037 Ry

     iteration # 22     ecut=    60.00 Ry     beta= 0.70
     Davidson diagonalization with overlap

---- Real-time Memory Report at c_bands before calling an iterative solver
           881 MiB given to the printing process from OS
             0 MiB allocation reported by mallinfo(arena+hblkhd)
         26566 MiB available memory on the node where the printing process lives
------------------
     ethr =  1.64E-10,  avg # of iterations =  4.8

     negative rho (up, down):  1.333E-03 0.000E+00

     total cpu time spent up to now is      350.8 secs

     total energy              =   -6417.93190847 Ry
     estimated scf accuracy    <       0.00000052 Ry

     iteration # 23     ecut=    60.00 Ry     beta= 0.70
     Davidson diagonalization with overlap

---- Real-time Memory Report at c_bands before calling an iterative solver
           881 MiB given to the printing process from OS
             0 MiB allocation reported by mallinfo(arena+hblkhd)
         26562 MiB available memory on the node where the printing process lives
------------------
     ethr =  1.64E-10,  avg # of iterations =  2.5

     negative rho (up, down):  1.333E-03 0.000E+00

     total cpu time spent up to now is      363.6 secs

     total energy              =   -6417.93190844 Ry
     estimated scf accuracy    <       0.00000147 Ry

     iteration # 24     ecut=    60.00 Ry     beta= 0.70
     Davidson diagonalization with overlap

---- Real-time Memory Report at c_bands before calling an iterative solver
           881 MiB given to the printing process from OS
             0 MiB allocation reported by mallinfo(arena+hblkhd)
         26558 MiB available memory on the node where the printing process lives
------------------
     ethr =  1.64E-10,  avg # of iterations =  2.0

     negative rho (up, down):  1.333E-03 0.000E+00

     total cpu time spent up to now is      375.4 secs

     total energy              =   -6417.93190851 Ry
     estimated scf accuracy    <       0.00000019 Ry

     iteration # 25     ecut=    60.00 Ry     beta= 0.70
     Davidson diagonalization with overlap

---- Real-time Memory Report at c_bands before calling an iterative solver
           881 MiB given to the printing process from OS
             0 MiB allocation reported by mallinfo(arena+hblkhd)
         26560 MiB available memory on the node where the printing process lives
------------------
     ethr =  8.34E-11,  avg # of iterations =  1.1

     negative rho (up, down):  1.333E-03 0.000E+00

     total cpu time spent up to now is      385.7 secs

     total energy              =   -6417.93190853 Ry
     estimated scf accuracy    <       0.00000005 Ry

     iteration # 26     ecut=    60.00 Ry     beta= 0.70
     Davidson diagonalization with overlap

---- Real-time Memory Report at c_bands before calling an iterative solver
           882 MiB given to the printing process from OS
             0 MiB allocation reported by mallinfo(arena+hblkhd)
         26560 MiB available memory on the node where the printing process lives
------------------
     ethr =  2.39E-11,  avg # of iterations =  2.4

     negative rho (up, down):  1.333E-03 0.000E+00

     total cpu time spent up to now is      399.2 secs

     total energy              =   -6417.93190853 Ry
     estimated scf accuracy    <       0.00000005 Ry

     iteration # 27     ecut=    60.00 Ry     beta= 0.70
     Davidson diagonalization with overlap

---- Real-time Memory Report at c_bands before calling an iterative solver
           882 MiB given to the printing process from OS
             0 MiB allocation reported by mallinfo(arena+hblkhd)
         26558 MiB available memory on the node where the printing process lives
------------------
     ethr =  2.17E-11,  avg # of iterations =  1.7

     negative rho (up, down):  1.333E-03 0.000E+00

     total cpu time spent up to now is      410.0 secs

     total energy              =   -6417.93190853 Ry
     estimated scf accuracy    <       0.00000002 Ry

     iteration # 28     ecut=    60.00 Ry     beta= 0.70
     Davidson diagonalization with overlap

---- Real-time Memory Report at c_bands before calling an iterative solver
           882 MiB given to the printing process from OS
             0 MiB allocation reported by mallinfo(arena+hblkhd)
         26561 MiB available memory on the node where the printing process lives
------------------
     ethr =  9.07E-12,  avg # of iterations =  5.0

     negative rho (up, down):  1.333E-03 0.000E+00

     total cpu time spent up to now is      425.2 secs

     total energy              =   -6417.93190852 Ry
     estimated scf accuracy    <       0.00000015 Ry

     iteration # 29     ecut=    60.00 Ry     beta= 0.70
     Davidson diagonalization with overlap

---- Real-time Memory Report at c_bands before calling an iterative solver
           882 MiB given to the printing process from OS
             0 MiB allocation reported by mallinfo(arena+hblkhd)
         26554 MiB available memory on the node where the printing process lives
------------------
     ethr =  9.07E-12,  avg # of iterations =  3.4

     negative rho (up, down):  1.333E-03 0.000E+00

     total cpu time spent up to now is      441.2 secs

     total energy              =   -6417.93190853 Ry
     estimated scf accuracy    <          7.1E-09 Ry

     iteration # 30     ecut=    60.00 Ry     beta= 0.70
     Davidson diagonalization with overlap

---- Real-time Memory Report at c_bands before calling an iterative solver
           882 MiB given to the printing process from OS
             0 MiB allocation reported by mallinfo(arena+hblkhd)
         26554 MiB available memory on the node where the printing process lives
------------------
     ethr =  3.16E-12,  avg # of iterations =  4.1

     negative rho (up, down):  1.333E-03 0.000E+00

     total cpu time spent up to now is      453.9 secs

     total energy              =   -6417.93190853 Ry
     estimated scf accuracy    <          4.5E-09 Ry

     iteration # 31     ecut=    60.00 Ry     beta= 0.70
     Davidson diagonalization with overlap

---- Real-time Memory Report at c_bands before calling an iterative solver
           882 MiB given to the printing process from OS
             0 MiB allocation reported by mallinfo(arena+hblkhd)
         26560 MiB available memory on the node where the printing process lives
------------------
     ethr =  2.01E-12,  avg # of iterations =  2.0

     negative rho (up, down):  1.333E-03 0.000E+00

     total cpu time spent up to now is      466.1 secs

     total energy              =   -6417.93190853 Ry
     estimated scf accuracy    <          5.9E-10 Ry

     iteration # 32     ecut=    60.00 Ry     beta= 0.70
     Davidson diagonalization with overlap

---- Real-time Memory Report at c_bands before calling an iterative solver
           883 MiB given to the printing process from OS
             0 MiB allocation reported by mallinfo(arena+hblkhd)
         26562 MiB available memory on the node where the printing process lives
------------------
     ethr =  2.64E-13,  avg # of iterations =  5.0

     negative rho (up, down):  1.333E-03 0.000E+00

     total cpu time spent up to now is      480.1 secs

     total energy              =   -6417.93190853 Ry
     estimated scf accuracy    <          2.8E-10 Ry

     iteration # 33     ecut=    60.00 Ry     beta= 0.70
     Davidson diagonalization with overlap

---- Real-time Memory Report at c_bands before calling an iterative solver
           883 MiB given to the printing process from OS
             0 MiB allocation reported by mallinfo(arena+hblkhd)
         26556 MiB available memory on the node where the printing process lives
------------------
     ethr =  1.25E-13,  avg # of iterations =  5.0

     negative rho (up, down):  1.333E-03 0.000E+00

     total cpu time spent up to now is      496.7 secs

     total energy              =   -6417.93190853 Ry
     estimated scf accuracy    <          3.2E-09 Ry

     iteration # 34     ecut=    60.00 Ry     beta= 0.70
     Davidson diagonalization with overlap

---- Real-time Memory Report at c_bands before calling an iterative solver
           883 MiB given to the printing process from OS
             0 MiB allocation reported by mallinfo(arena+hblkhd)
         26552 MiB available memory on the node where the printing process lives
------------------
     ethr =  1.25E-13,  avg # of iterations =  3.4

     negative rho (up, down):  1.333E-03 0.000E+00

     total cpu time spent up to now is      510.2 secs

     total energy              =   -6417.93190853 Ry
     estimated scf accuracy    <          4.8E-11 Ry

     iteration # 35     ecut=    60.00 Ry     beta= 0.70
     Davidson diagonalization with overlap

---- Real-time Memory Report at c_bands before calling an iterative solver
           883 MiB given to the printing process from OS
             0 MiB allocation reported by mallinfo(arena+hblkhd)
         26554 MiB available memory on the node where the printing process lives
------------------
     ethr =  1.00E-13,  avg # of iterations =  2.0

     negative rho (up, down):  1.333E-03 0.000E+00

     total cpu time spent up to now is      523.0 secs

     total energy              =   -6417.93190853 Ry
     estimated scf accuracy    <          1.6E-10 Ry

     iteration # 36     ecut=    60.00 Ry     beta= 0.70
     Davidson diagonalization with overlap

---- Real-time Memory Report at c_bands before calling an iterative solver
           883 MiB given to the printing process from OS
             0 MiB allocation reported by mallinfo(arena+hblkhd)
         26556 MiB available memory on the node where the printing process lives
------------------
     ethr =  1.00E-13,  avg # of iterations =  1.0

     negative rho (up, down):  1.333E-03 0.000E+00

     total cpu time spent up to now is      535.4 secs

     total energy              =   -6417.93190853 Ry
     estimated scf accuracy    <          1.2E-11 Ry

     iteration # 37     ecut=    60.00 Ry     beta= 0.70
     Davidson diagonalization with overlap

---- Real-time Memory Report at c_bands before calling an iterative solver
           883 MiB given to the printing process from OS
             0 MiB allocation reported by mallinfo(arena+hblkhd)
         26562 MiB available memory on the node where the printing process lives
------------------
     ethr =  1.00E-13,  avg # of iterations =  1.0

     negative rho (up, down):  1.333E-03 0.000E+00

     total cpu time spent up to now is      545.9 secs

     total energy              =   -6417.93190853 Ry
     estimated scf accuracy    <          1.6E-11 Ry

     iteration # 38     ecut=    60.00 Ry     beta= 0.70
     Davidson diagonalization with overlap

---- Real-time Memory Report at c_bands before calling an iterative solver
           883 MiB given to the printing process from OS
             0 MiB allocation reported by mallinfo(arena+hblkhd)
         26553 MiB available memory on the node where the printing process lives
------------------
     ethr =  1.00E-13,  avg # of iterations =  1.0

     negative rho (up, down):  1.333E-03 0.000E+00

     total cpu time spent up to now is      558.6 secs

     total energy              =   -6417.93190853 Ry
     estimated scf accuracy    <          7.5E-11 Ry

     iteration # 39     ecut=    60.00 Ry     beta= 0.70
     Davidson diagonalization with overlap

---- Real-time Memory Report at c_bands before calling an iterative solver
           883 MiB given to the printing process from OS
             0 MiB allocation reported by mallinfo(arena+hblkhd)
         26551 MiB available memory on the node where the printing process lives
------------------
     ethr =  1.00E-13,  avg # of iterations =  1.0

     negative rho (up, down):  1.333E-03 0.000E+00

     total cpu time spent up to now is      568.9 secs

     total energy              =   -6417.93190853 Ry
     estimated scf accuracy    <          6.3E-11 Ry

     iteration # 40     ecut=    60.00 Ry     beta= 0.70
     Davidson diagonalization with overlap

---- Real-time Memory Report at c_bands before calling an iterative solver
           883 MiB given to the printing process from OS
             0 MiB allocation reported by mallinfo(arena+hblkhd)
         26551 MiB available memory on the node where the printing process lives
------------------
     ethr =  1.00E-13,  avg # of iterations =  1.0

     negative rho (up, down):  1.333E-03 0.000E+00

     total cpu time spent up to now is      580.6 secs

     total energy              =   -6417.93190853 Ry
     estimated scf accuracy    <          2.9E-12 Ry

     iteration # 41     ecut=    60.00 Ry     beta= 0.70
     Davidson diagonalization with overlap

---- Real-time Memory Report at c_bands before calling an iterative solver
           883 MiB given to the printing process from OS
             0 MiB allocation reported by mallinfo(arena+hblkhd)
         26555 MiB available memory on the node where the printing process lives
------------------
     ethr =  1.00E-13,  avg # of iterations =  1.0

     negative rho (up, down):  1.333E-03 0.000E+00

     total cpu time spent up to now is      591.0 secs

     total energy              =   -6417.93190853 Ry
     estimated scf accuracy    <          6.0E-12 Ry

     iteration # 42     ecut=    60.00 Ry     beta= 0.70
     Davidson diagonalization with overlap

---- Real-time Memory Report at c_bands before calling an iterative solver
           883 MiB given to the printing process from OS
             0 MiB allocation reported by mallinfo(arena+hblkhd)
         26555 MiB available memory on the node where the printing process lives
------------------
     ethr =  1.00E-13,  avg # of iterations =  1.0

     negative rho (up, down):  1.333E-03 0.000E+00

     total cpu time spent up to now is      601.7 secs

     End of self-consistent calculation

          k = 0.0000 0.0000 0.0000 (109633 PWs)   bands (ev):

   -60.5898 -60.5681 -60.5487 -60.5432 -60.5285 -60.5279 -60.5153 -60.4795
   -60.4477 -36.7653 -36.7561 -36.7534 -36.7348 -36.7299 -36.6893 -36.6854
   -36.6798 -36.6664 -36.6521 -36.6371 -36.6248 -36.6122 -36.5987 -36.5906
   -36.5858 -36.5795 -36.5722 -36.5623 -36.5574 -36.5523 -36.5442 -36.5403
   -36.5186 -36.5175 -36.5038 -36.4647 -19.0584 -18.1967 -18.1429 -18.1115
   -18.0930 -18.0677 -18.0333 -17.9721 -17.7486 -17.6758 -17.6654 -17.6490
   -17.6364 -17.5671 -17.4973 -17.4749 -17.3838 -17.3199 -10.3411  -9.9247
    -9.9023  -9.8912  -9.8554  -9.8466  -9.8231  -9.8002  -9.7826  -9.4094
    -9.3849  -9.0583  -9.0151  -9.0140  -8.9996  -8.9831  -8.9801  -8.9691
    -8.9359  -8.9216  -8.9177  -8.9075  -8.8704  -8.8651  -8.8398  -8.5700
    -8.5467  -7.9580  -7.9406  -7.6850  -7.6604  -7.5999  -7.5872  -7.5139
    -7.4333  -7.3454  -7.3130  -7.2288  -7.0817  -6.9243  -6.8771  -6.7902
    -6.7675  -6.7452  -6.6910  -6.6362  -6.5700  -6.5441  -6.4974  -6.4657
    -6.3815  -6.3767  -6.3170  -6.2713  -5.8684  -5.8633  -5.8317  -5.7988
    -5.7913  -5.7586  -4.9578  -4.9373  -4.8755  -3.6102  -3.5672  -3.1688
    -3.1486  -3.1335  -3.0518  -3.0114  -2.9649  -2.9219  -2.9024  -2.8838
    -2.8247  -2.8002  -2.7817  -2.6744  -2.6494  -2.3719  -2.3458  -2.3151

     occupation numbers 
     1.0000   1.0000   1.0000   1.0000   1.0000   1.0000   1.0000   1.0000
     1.0000   1.0000   1.0000   1.0000   1.0000   1.0000   1.0000   1.0000
     1.0000   1.0000   1.0000   1.0000   1.0000   1.0000   1.0000   1.0000
     1.0000   1.0000   1.0000   1.0000   1.0000   1.0000   1.0000   1.0000
     1.0000   1.0000   1.0000   1.0000   1.0000   1.0000   1.0000   1.0000
     1.0000   1.0000   1.0000   1.0000   1.0000   1.0000   1.0000   1.0000
     1.0000   1.0000   1.0000   1.0000   1.0000   1.0000   1.0000   1.0000
     1.0000   1.0000   1.0000   1.0000   1.0000   1.0000   1.0000   1.0000
     1.0000   1.0000   1.0000   1.0000   1.0000   1.0000   1.0000   1.0000
     1.0000   1.0000   1.0000   1.0000   1.0000   1.0000   1.0000   1.0000
     1.0000   1.0000   1.0000   1.0000   1.0000   1.0000   1.0000   1.0000
     1.0000   1.0000   1.0000   1.0000   1.0000   1.0000   1.0000   1.0000
     1.0000   1.0000   1.0000   1.0000   1.0000   1.0000   1.0000   1.0000
     1.0000   1.0000   1.0000   1.0000   1.0065   1.0074   1.0159   1.0310
     1.0353   1.0570   0.0000   0.0000   0.0000   0.0000   0.0000   0.0000
     0.0000   0.0000   0.0000   0.0000   0.0000   0.0000   0.0000   0.0000
     0.0000   0.0000   0.0000   0.0000   0.0000   0.0000   0.0000   0.0000

          k = 0.0000 0.2887 0.0000 (109548 PWs)   bands (ev):

   -60.5898 -60.5680 -60.5489 -60.5430 -60.5293 -60.5271 -60.5152 -60.4795
   -60.4477 -36.7854 -36.7649 -36.7541 -36.7390 -36.7222 -36.7014 -36.6745
   -36.6603 -36.6511 -36.6363 -36.6285 -36.6244 -36.6147 -36.5970 -36.5966
   -36.5895 -36.5769 -36.5739 -36.5618 -36.5613 -36.5526 -36.5453 -36.5405
   -36.5223 -36.5185 -36.5139 -36.4674 -18.9837 -18.4440 -18.2466 -18.2183
   -18.0589 -17.9171 -17.8837 -17.8251 -17.7792 -17.7456 -17.7018 -17.5981
   -17.5579 -17.5486 -17.5228 -17.5030 -17.4045 -17.3435 -10.2957 -10.2317
   -10.0347 -10.0250  -9.7628  -9.7586  -9.7510  -9.7465  -9.6583  -9.6012
    -9.5943  -9.3788  -9.2016  -9.1924  -9.0260  -8.9876  -8.9286  -8.8836
    -8.8487  -8.8220  -8.7047  -8.6783  -8.6563  -8.6225  -8.3328  -8.2721
    -8.2578  -8.0298  -8.0024  -7.8734  -7.8516  -7.7924  -7.6860  -7.6523
    -7.5672  -7.2764  -7.2550  -7.1838  -7.0531  -6.9839  -6.8803  -6.8331
    -6.7995  -6.7905  -6.7519  -6.6952  -6.6827  -6.6644  -6.5637  -6.5340
    -6.4698  -6.4057  -6.2975  -6.1972  -5.8059  -5.7447  -5.6915  -5.6609
    -5.6138  -5.5690  -5.1179  -5.1038  -4.9492  -3.4411  -3.3718  -3.2417
    -3.2098  -3.1262  -3.0883  -3.0198  -2.9795  -2.9274  -2.8444  -2.8038
    -2.7896  -2.7513  -2.6979  -2.6822  -2.6537  -2.5760  -2.5359  -2.5165

     occupation numbers 
     1.0000   1.0000   1.0000   1.0000   1.0000   1.0000   1.0000   1.0000
     1.0000   1.0000   1.0000   1.0000   1.0000   1.0000   1.0000   1.0000
     1.0000   1.0000   1.0000   1.0000   1.0000   1.0000   1.0000   1.0000
     1.0000   1.0000   1.0000   1.0000   1.0000   1.0000   1.0000   1.0000
     1.0000   1.0000   1.0000   1.0000   1.0000   1.0000   1.0000   1.0000
     1.0000   1.0000   1.0000   1.0000   1.0000   1.0000   1.0000   1.0000
     1.0000   1.0000   1.0000   1.0000   1.0000   1.0000   1.0000   1.0000
     1.0000   1.0000   1.0000   1.0000   1.0000   1.0000   1.0000   1.0000
     1.0000   1.0000   1.0000   1.0000   1.0000   1.0000   1.0000   1.0000
     1.0000   1.0000   1.0000   1.0000   1.0000   1.0000   1.0000   1.0000
     1.0000   1.0000   1.0000   1.0000   1.0000   1.0000   1.0000   1.0000
     1.0000   1.0000   1.0000   1.0000   1.0000   1.0000   1.0000   1.0000
     1.0000   1.0000   1.0000   1.0000   1.0000   1.0000   1.0000   1.0000
     1.0000   1.0000   1.0000   1.0000   1.0272   1.0664   1.0817   1.0550
     0.9302   0.7210   0.0000   0.0000   0.0000   0.0000   0.0000   0.0000
     0.0000   0.0000   0.0000   0.0000   0.0000   0.0000   0.0000   0.0000
     0.0000   0.0000   0.0000   0.0000   0.0000   0.0000   0.0000   0.0000

          k = 0.0000-0.5774 0.0000 (109566 PWs)   bands (ev):

   -60.5898 -60.5680 -60.5491 -60.5428 -60.5298 -60.5268 -60.5152 -60.4795
   -60.4477 -36.7968 -36.7713 -36.7590 -36.7432 -36.7259 -36.6937 -36.6631
   -36.6501 -36.6449 -36.6236 -36.6223 -36.6174 -36.6129 -36.5953 -36.5944
   -36.5926 -36.5768 -36.5755 -36.5703 -36.5613 -36.5529 -36.5476 -36.5415
   -36.5273 -36.5262 -36.5184 -36.4701 -18.8162 -18.7078 -18.2888 -18.2672
   -17.9776 -17.9443 -17.7930 -17.7669 -17.7256 -17.7194 -17.6858 -17.6427
   -17.6059 -17.5450 -17.5212 -17.4448 -17.4394 -17.3795 -10.4602 -10.0489
   -10.0272 -10.0174  -9.9837  -9.9722  -9.8939  -9.5688  -9.5444  -9.5279
    -9.5113  -9.5102  -9.4579  -9.4314  -8.9941  -8.9444  -8.8879  -8.8096
    -8.7989  -8.7387  -8.6880  -8.4687  -8.4119  -8.2567  -8.1087  -8.1072
    -8.0614  -8.0298  -7.9903  -7.9321  -7.9040  -7.8722  -7.6509  -7.6111
    -7.5365  -7.4877  -7.4587  -7.4058  -7.1005  -7.0460  -7.0285  -6.9445
    -6.9218  -6.8874  -6.8741  -6.8321  -6.7875  -6.7253  -6.6710  -6.3843
    -6.3245  -6.2710  -6.2412  -6.1758  -5.7195  -5.6734  -5.5915  -5.4703
    -5.4354  -5.3711  -5.3436  -5.2024  -5.1351  -3.4101  -3.2911  -3.1794
    -3.1391  -3.1154  -3.0633  -2.9877  -2.9420  -2.9207  -2.8642  -2.8510
    -2.8164  -2.7362  -2.7296  -2.7161  -2.6882  -2.6681  -2.5895  -2.5747

     occupation numbers 
     1.0000   1.0000   1.0000   1.0000   1.0000   1.0000   1.0000   1.0000
     1.0000   1.0000   1.0000   1.0000   1.0000   1.0000   1.0000   1.0000
     1.0000   1.0000   1.0000   1.0000   1.0000   1.0000   1.0000   1.0000
     1.0000   1.0000   1.0000   1.0000   1.0000   1.0000   1.0000   1.0000
     1.0000   1.0000   1.0000   1.0000   1.0000   1.0000   1.0000   1.0000
     1.0000   1.0000   1.0000   1.0000   1.0000   1.0000   1.0000   1.0000
     1.0000   1.0000   1.0000   1.0000   1.0000   1.0000   1.0000   1.0000
     1.0000   1.0000   1.0000   1.0000   1.0000   1.0000   1.0000   1.0000
     1.0000   1.0000   1.0000   1.0000   1.0000   1.0000   1.0000   1.0000
     1.0000   1.0000   1.0000   1.0000   1.0000   1.0000   1.0000   1.0000
     1.0000   1.0000   1.0000   1.0000   1.0000   1.0000   1.0000   1.0000
     1.0000   1.0000   1.0000   1.0000   1.0000   1.0000   1.0000   1.0000
     1.0000   1.0000   1.0000   1.0000   1.0000   1.0000   1.0000   1.0000
     1.0000   1.0000   1.0000   1.0000   1.0798   1.0704   0.8347   0.2268
     0.1210   0.0276   0.0129   0.0001   0.0000   0.0000   0.0000   0.0000
     0.0000   0.0000   0.0000   0.0000   0.0000   0.0000   0.0000   0.0000
     0.0000   0.0000   0.0000   0.0000   0.0000   0.0000   0.0000   0.0000

          k = 0.2500 0.4330 0.0000 (109442 PWs)   bands (ev):

   -60.5897 -60.5680 -60.5489 -60.5429 -60.5297 -60.5268 -60.5152 -60.4795
   -60.4477 -36.7944 -36.7758 -36.7599 -36.7426 -36.7161 -36.7049 -36.6618
   -36.6501 -36.6394 -36.6243 -36.6216 -36.6164 -36.6119 -36.5990 -36.5954
   -36.5916 -36.5820 -36.5760 -36.5621 -36.5616 -36.5543 -36.5523 -36.5411
   -36.5331 -36.5185 -36.5171 -36.4710 -18.8444 -18.5689 -18.5460 -18.0019
   -17.9957 -17.9432 -17.8819 -17.8587 -17.7206 -17.6868 -17.6585 -17.6235
   -17.6020 -17.5626 -17.5065 -17.4617 -17.4421 -17.3660 -10.3376 -10.3231
   -10.1147 -10.0512  -9.8189  -9.7641  -9.7340  -9.7006  -9.6765  -9.6761
    -9.5280  -9.5174  -9.4713  -9.0367  -9.0296  -8.9410  -8.9029  -8.8360
    -8.7922  -8.7344  -8.6921  -8.6223  -8.5861  -8.1702  -8.1256  -8.0618
    -8.0262  -8.0057  -7.9956  -7.9588  -7.8794  -7.8699  -7.8384  -7.5365
    -7.5304  -7.3811  -7.3264  -7.2772  -7.2492  -7.1206  -6.9847  -6.9648
    -6.9452  -6.8526  -6.8513  -6.7811  -6.7454  -6.6971  -6.6582  -6.5505
    -6.5156  -6.2903  -6.2237  -6.0983  -5.6854  -5.6412  -5.5357  -5.5076
    -5.4476  -5.3985  -5.3012  -5.2517  -5.0900  -3.3460  -3.2563  -3.2105
    -3.1723  -3.0826  -3.0418  -3.0019  -2.9790  -2.9543  -2.9164  -2.8846
    -2.8528  -2.8219  -2.7831  -2.6978  -2.6836  -2.6394  -2.5600  -2.5164

     occupation numbers 
     1.0000   1.0000   1.0000   1.0000   1.0000   1.0000   1.0000   1.0000
     1.0000   1.0000   1.0000   1.0000   1.0000   1.0000   1.0000   1.0000
     1.0000   1.0000   1.0000   1.0000   1.0000   1.0000   1.0000   1.0000
     1.0000   1.0000   1.0000   1.0000   1.0000   1.0000   1.0000   1.0000
     1.0000   1.0000   1.0000   1.0000   1.0000   1.0000   1.0000   1.0000
     1.0000   1.0000   1.0000   1.0000   1.0000   1.0000   1.0000   1.0000
     1.0000   1.0000   1.0000   1.0000   1.0000   1.0000   1.0000   1.0000
     1.0000   1.0000   1.0000   1.0000   1.0000   1.0000   1.0000   1.0000
     1.0000   1.0000   1.0000   1.0000   1.0000   1.0000   1.0000   1.0000
     1.0000   1.0000   1.0000   1.0000   1.0000   1.0000   1.0000   1.0000
     1.0000   1.0000   1.0000   1.0000   1.0000   1.0000   1.0000   1.0000
     1.0000   1.0000   1.0000   1.0000   1.0000   1.0000   1.0000   1.0000
     1.0000   1.0000   1.0000   1.0000   1.0000   1.0000   1.0000   1.0000
     1.0000   1.0000   1.0000   1.0000   1.0792   1.0159   0.5385   0.3897
     0.1529   0.0546   0.0034   0.0006   0.0000   0.0000   0.0000   0.0000
     0.0000   0.0000   0.0000   0.0000   0.0000   0.0000   0.0000   0.0000
     0.0000   0.0000   0.0000   0.0000   0.0000   0.0000   0.0000   0.0000

          k =-0.2500 0.1443 0.0000 (109548 PWs)   bands (ev):

   -60.5898 -60.5681 -60.5488 -60.5431 -60.5286 -60.5278 -60.5153 -60.4795
   -60.4477 -36.7860 -36.7619 -36.7533 -36.7470 -36.7156 -36.6991 -36.6778
   -36.6533 -36.6509 -36.6501 -36.6261 -36.6241 -36.6127 -36.5983 -36.5949
   -36.5866 -36.5790 -36.5761 -36.5624 -36.5620 -36.5521 -36.5473 -36.5416
   -36.5193 -36.5185 -36.5067 -36.4719 -18.9827 -18.4575 -18.2321 -18.2105
   -18.0587 -17.9225 -17.8956 -17.8303 -17.7722 -17.7310 -17.7024 -17.6084
   -17.5693 -17.5490 -17.5221 -17.4917 -17.4035 -17.3432 -10.2887 -10.2383
   -10.0346 -10.0234  -9.7591  -9.7543  -9.7459  -9.7418  -9.6839  -9.6306
    -9.5618  -9.3807  -9.2143  -9.1844  -9.0271  -8.9812  -8.9323  -8.8983
    -8.8440  -8.8103  -8.7029  -8.6732  -8.6558  -8.6363  -8.3091  -8.2738
    -8.2617  -8.0311  -8.0043  -7.8962  -7.8362  -7.7744  -7.6888  -7.6422
    -7.5871  -7.2551  -7.2522  -7.1757  -7.0657  -6.9690  -6.8857  -6.8282
    -6.7976  -6.7715  -6.7371  -6.7286  -6.7154  -6.6819  -6.5764  -6.5120
    -6.4758  -6.4097  -6.2868  -6.1930  -5.7994  -5.7225  -5.7174  -5.6978
    -5.6094  -5.5555  -5.1206  -5.0927  -4.9480  -3.4122  -3.3856  -3.2360
    -3.2188  -3.1472  -3.0657  -3.0434  -2.9642  -2.9169  -2.8769  -2.8241
    -2.7900  -2.7419  -2.7039  -2.6626  -2.6577  -2.5934  -2.5664  -2.4493

     occupation numbers 
     1.0000   1.0000   1.0000   1.0000   1.0000   1.0000   1.0000   1.0000
     1.0000   1.0000   1.0000   1.0000   1.0000   1.0000   1.0000   1.0000
     1.0000   1.0000   1.0000   1.0000   1.0000   1.0000   1.0000   1.0000
     1.0000   1.0000   1.0000   1.0000   1.0000   1.0000   1.0000   1.0000
     1.0000   1.0000   1.0000   1.0000   1.0000   1.0000   1.0000   1.0000
     1.0000   1.0000   1.0000   1.0000   1.0000   1.0000   1.0000   1.0000
     1.0000   1.0000   1.0000   1.0000   1.0000   1.0000   1.0000   1.0000
     1.0000   1.0000   1.0000   1.0000   1.0000   1.0000   1.0000   1.0000
     1.0000   1.0000   1.0000   1.0000   1.0000   1.0000   1.0000   1.0000
     1.0000   1.0000   1.0000   1.0000   1.0000   1.0000   1.0000   1.0000
     1.0000   1.0000   1.0000   1.0000   1.0000   1.0000   1.0000   1.0000
     1.0000   1.0000   1.0000   1.0000   1.0000   1.0000   1.0000   1.0000
     1.0000   1.0000   1.0000   1.0000   1.0000   1.0000   1.0000   1.0000
     1.0000   1.0000   1.0000   1.0000   1.0307   1.0787   1.0806   1.0831
     0.9130   0.6475   0.0000   0.0000   0.0000   0.0000   0.0000   0.0000
     0.0000   0.0000   0.0000   0.0000   0.0000   0.0000   0.0000   0.0000
     0.0000   0.0000   0.0000   0.0000   0.0000   0.0000   0.0000   0.0000

          k = 0.2500 0.1443 0.0000 (109548 PWs)   bands (ev):

   -60.5898 -60.5681 -60.5487 -60.5431 -60.5292 -60.5272 -60.5153 -60.4795
   -60.4477 -36.7832 -36.7652 -36.7572 -36.7430 -36.7136 -36.7040 -36.6755
   -36.6589 -36.6511 -36.6422 -36.6250 -36.6216 -36.6136 -36.5975 -36.5959
   -36.5887 -36.5787 -36.5776 -36.5620 -36.5594 -36.5520 -36.5460 -36.5428
   -36.5231 -36.5186 -36.5097 -36.4683 -18.9829 -18.4521 -18.2338 -18.2179
   -18.0590 -17.9265 -17.8868 -17.8275 -17.7721 -17.7427 -17.6960 -17.6042
   -17.5635 -17.5495 -17.5223 -17.4973 -17.4069 -17.3414 -10.2916 -10.2333
   -10.0391 -10.0264  -9.7588  -9.7567  -9.7470  -9.7351  -9.6942  -9.6094
    -9.5698  -9.3730  -9.2131  -9.1881  -9.0147  -8.9872  -8.9477  -8.8878
    -8.8351  -8.8234  -8.7019  -8.6744  -8.6571  -8.6219  -8.3235  -8.2804
    -8.2529  -8.0354  -8.0113  -7.8957  -7.8665  -7.7558  -7.6939  -7.6179
    -7.5925  -7.2700  -7.2491  -7.1721  -7.0690  -6.9590  -6.9100  -6.8540
    -6.7989  -6.7694  -6.7515  -6.7243  -6.6936  -6.6468  -6.5687  -6.5202
    -6.4497  -6.3929  -6.2899  -6.2136  -5.8145  -5.7644  -5.7027  -5.6508
    -5.6079  -5.5571  -5.1189  -5.1040  -4.9492  -3.4352  -3.3687  -3.2606
    -3.1934  -3.1111  -3.0715  -3.0487  -2.9871  -2.9197  -2.8713  -2.8144
    -2.7749  -2.7423  -2.7020  -2.6832  -2.6414  -2.6003  -2.5536  -2.4922

     occupation numbers 
     1.0000   1.0000   1.0000   1.0000   1.0000   1.0000   1.0000   1.0000
     1.0000   1.0000   1.0000   1.0000   1.0000   1.0000   1.0000   1.0000
     1.0000   1.0000   1.0000   1.0000   1.0000   1.0000   1.0000   1.0000
     1.0000   1.0000   1.0000   1.0000   1.0000   1.0000   1.0000   1.0000
     1.0000   1.0000   1.0000   1.0000   1.0000   1.0000   1.0000   1.0000
     1.0000   1.0000   1.0000   1.0000   1.0000   1.0000   1.0000   1.0000
     1.0000   1.0000   1.0000   1.0000   1.0000   1.0000   1.0000   1.0000
     1.0000   1.0000   1.0000   1.0000   1.0000   1.0000   1.0000   1.0000
     1.0000   1.0000   1.0000   1.0000   1.0000   1.0000   1.0000   1.0000
     1.0000   1.0000   1.0000   1.0000   1.0000   1.0000   1.0000   1.0000
     1.0000   1.0000   1.0000   1.0000   1.0000   1.0000   1.0000   1.0000
     1.0000   1.0000   1.0000   1.0000   1.0000   1.0000   1.0000   1.0000
     1.0000   1.0000   1.0000   1.0000   1.0000   1.0000   1.0000   1.0000
     1.0000   1.0000   1.0000   1.0000   1.0230   1.0530   1.0833   1.0373
     0.9068   0.6563   0.0000   0.0000   0.0000   0.0000   0.0000   0.0000
     0.0000   0.0000   0.0000   0.0000   0.0000   0.0000   0.0000   0.0000
     0.0000   0.0000   0.0000   0.0000   0.0000   0.0000   0.0000   0.0000

          k = 0.5000-0.2887 0.0000 (109566 PWs)   bands (ev):

   -60.5897 -60.5682 -60.5490 -60.5429 -60.5287 -60.5277 -60.5153 -60.4795
   -60.4477 -36.7979 -36.7672 -36.7560 -36.7535 -36.7220 -36.6872 -36.6683
   -36.6495 -36.6400 -36.6280 -36.6275 -36.6131 -36.6102 -36.6022 -36.5980
   -36.5873 -36.5828 -36.5785 -36.5684 -36.5618 -36.5519 -36.5502 -36.5441
   -36.5185 -36.5185 -36.5119 -36.4799 -18.7893 -18.7448 -18.2786 -18.2590
   -17.9710 -17.9535 -17.8062 -17.7529 -17.7412 -17.7241 -17.6617 -17.6380
   -17.6144 -17.5655 -17.5164 -17.4559 -17.4192 -17.3795 -10.4565 -10.0548
   -10.0352 -10.0028  -9.9800  -9.9459  -9.9342  -9.5775  -9.5407  -9.5344
    -9.4933  -9.4887  -9.4660  -9.4590  -9.0017  -8.9326  -8.9036  -8.8282
    -8.7425  -8.7313  -8.7048  -8.4731  -8.4188  -8.2581  -8.1317  -8.1104
    -8.0785  -8.0336  -7.9735  -7.9061  -7.8954  -7.8406  -7.6631  -7.6005
    -7.5416  -7.5143  -7.4476  -7.3824  -7.0400  -7.0177  -6.9763  -6.9729
    -6.9248  -6.9223  -6.9042  -6.8436  -6.7871  -6.7501  -6.7319  -6.3649
    -6.3189  -6.2753  -6.2300  -6.1833  -5.7126  -5.6474  -5.6381  -5.5278
    -5.4659  -5.3343  -5.3057  -5.1702  -5.1514  -3.3739  -3.3036  -3.1678
    -3.1588  -3.0823  -3.0415  -3.0226  -2.9454  -2.9387  -2.8982  -2.8688
    -2.8644  -2.7390  -2.7371  -2.6954  -2.6650  -2.6595  -2.5992  -2.5674

     occupation numbers 
     1.0000   1.0000   1.0000   1.0000   1.0000   1.0000   1.0000   1.0000
     1.0000   1.0000   1.0000   1.0000   1.0000   1.0000   1.0000   1.0000
     1.0000   1.0000   1.0000   1.0000   1.0000   1.0000   1.0000   1.0000
     1.0000   1.0000   1.0000   1.0000   1.0000   1.0000   1.0000   1.0000
     1.0000   1.0000   1.0000   1.0000   1.0000   1.0000   1.0000   1.0000
     1.0000   1.0000   1.0000   1.0000   1.0000   1.0000   1.0000   1.0000
     1.0000   1.0000   1.0000   1.0000   1.0000   1.0000   1.0000   1.0000
     1.0000   1.0000   1.0000   1.0000   1.0000   1.0000   1.0000   1.0000
     1.0000   1.0000   1.0000   1.0000   1.0000   1.0000   1.0000   1.0000
     1.0000   1.0000   1.0000   1.0000   1.0000   1.0000   1.0000   1.0000
     1.0000   1.0000   1.0000   1.0000   1.0000   1.0000   1.0000   1.0000
     1.0000   1.0000   1.0000   1.0000   1.0000   1.0000   1.0000   1.0000
     1.0000   1.0000   1.0000   1.0000   1.0000   1.0000   1.0000   1.0000
     1.0000   1.0000   1.0000   1.0000   1.0820   1.0303   1.0081   0.4952
     0.2109   0.0098   0.0040   0.0000   0.0000   0.0000   0.0000   0.0000
     0.0000   0.0000   0.0000   0.0000   0.0000   0.0000   0.0000   0.0000
     0.0000   0.0000   0.0000   0.0000   0.0000   0.0000   0.0000   0.0000

          k =-0.5000-0.2887 0.0000 (109566 PWs)   bands (ev):

   -60.5897 -60.5681 -60.5487 -60.5430 -60.5296 -60.5269 -60.5153 -60.4795
   -60.4477 -36.7943 -36.7708 -36.7647 -36.7474 -36.7134 -36.7001 -36.6668
   -36.6500 -36.6396 -36.6253 -36.6213 -36.6150 -36.6034 -36.5969 -36.5967
   -36.5924 -36.5907 -36.5765 -36.5619 -36.5595 -36.5551 -36.5517 -36.5458
   -36.5308 -36.5186 -36.5143 -36.4717 -18.8019 -18.7278 -18.2784 -18.2676
   -17.9774 -17.9461 -17.8067 -17.7631 -17.7306 -17.7166 -17.6665 -17.6377
   -17.6158 -17.5637 -17.4951 -17.4697 -17.4344 -17.3719 -10.4566 -10.0701
   -10.0294 -10.0030  -9.9981  -9.9383  -9.9127  -9.5799  -9.5312  -9.5196
    -9.5144  -9.4998  -9.4599  -9.4450  -8.9897  -8.9415  -8.9159  -8.8081
    -8.7525  -8.7339  -8.7074  -8.4687  -8.4092  -8.2387  -8.1535  -8.1181
    -8.0896  -8.0337  -7.9945  -7.9340  -7.8440  -7.8306  -7.7134  -7.6055
    -7.5198  -7.4709  -7.4582  -7.4253  -7.1137  -7.0261  -7.0066  -6.9594
    -6.9157  -6.8830  -6.8553  -6.8533  -6.7776  -6.7662  -6.6628  -6.3746
    -6.3224  -6.2601  -6.2324  -6.1910  -5.7316  -5.6864  -5.6035  -5.4504
    -5.4363  -5.3790  -5.3245  -5.1954  -5.1505  -3.3955  -3.3118  -3.1840
    -3.1227  -3.0631  -3.0398  -2.9918  -2.9399  -2.9251  -2.9201  -2.8564
    -2.8412  -2.7995  -2.7508  -2.6971  -2.6813  -2.6446  -2.5980  -2.5366

     occupation numbers 
     1.0000   1.0000   1.0000   1.0000   1.0000   1.0000   1.0000   1.0000
     1.0000   1.0000   1.0000   1.0000   1.0000   1.0000   1.0000   1.0000
     1.0000   1.0000   1.0000   1.0000   1.0000   1.0000   1.0000   1.0000
     1.0000   1.0000   1.0000   1.0000   1.0000   1.0000   1.0000   1.0000
     1.0000   1.0000   1.0000   1.0000   1.0000   1.0000   1.0000   1.0000
     1.0000   1.0000   1.0000   1.0000   1.0000   1.0000   1.0000   1.0000
     1.0000   1.0000   1.0000   1.0000   1.0000   1.0000   1.0000   1.0000
     1.0000   1.0000   1.0000   1.0000   1.0000   1.0000   1.0000   1.0000
     1.0000   1.0000   1.0000   1.0000   1.0000   1.0000   1.0000   1.0000
     1.0000   1.0000   1.0000   1.0000   1.0000   1.0000   1.0000   1.0000
     1.0000   1.0000   1.0000   1.0000   1.0000   1.0000   1.0000   1.0000
     1.0000   1.0000   1.0000   1.0000   1.0000   1.0000   1.0000   1.0000
     1.0000   1.0000   1.0000   1.0000   1.0000   1.0000   1.0000   1.0000
     1.0000   1.0000   1.0000   1.0000   1.0743   1.0797   0.8886   0.1609
     0.1232   0.0339   0.0073   0.0001   0.0000   0.0000   0.0000   0.0000
     0.0000   0.0000   0.0000   0.0000   0.0000   0.0000   0.0000   0.0000
     0.0000   0.0000   0.0000   0.0000   0.0000   0.0000   0.0000   0.0000

          k =-0.2500 0.4330 0.0000 (109442 PWs)   bands (ev):

   -60.5897 -60.5681 -60.5490 -60.5428 -60.5293 -60.5271 -60.5152 -60.4795
   -60.4476 -36.7967 -36.7705 -36.7610 -36.7456 -36.7163 -36.7008 -36.6625
   -36.6499 -36.6413 -36.6258 -36.6237 -36.6151 -36.6119 -36.6008 -36.5969
   -36.5893 -36.5810 -36.5769 -36.5631 -36.5617 -36.5571 -36.5523 -36.5398
   -36.5234 -36.5184 -36.5182 -36.4745 -18.8429 -18.5897 -18.5264 -18.0178
   -17.9944 -17.9082 -17.8908 -17.8493 -17.7678 -17.6784 -17.6324 -17.6309
   -17.5928 -17.5696 -17.5172 -17.4723 -17.4169 -17.3734 -10.3460 -10.3130
   -10.1142 -10.0496  -9.8213  -9.7576  -9.7391  -9.7100  -9.6712  -9.6678
    -9.5580  -9.5020  -9.4691  -9.0584  -9.0109  -8.9402  -8.8771  -8.8675
    -8.7905  -8.7455  -8.6720  -8.6153  -8.5955  -8.1419  -8.1232  -8.0842
    -8.0557  -7.9993  -7.9818  -7.9130  -7.9007  -7.8830  -7.8555  -7.5318
    -7.4883  -7.4304  -7.2822  -7.2749  -7.2321  -7.1329  -6.9866  -6.9491
    -6.9430  -6.8609  -6.8472  -6.8211  -6.7413  -6.7009  -6.6730  -6.5552
    -6.5168  -6.3063  -6.1973  -6.1057  -5.6508  -5.6375  -5.5696  -5.5220
    -5.4456  -5.4051  -5.3093  -5.2298  -5.0834  -3.3335  -3.2465  -3.1915
    -3.1703  -3.1269  -3.0976  -3.0006  -2.9582  -2.9213  -2.9096  -2.8909
    -2.8594  -2.8248  -2.7795  -2.6994  -2.6882  -2.6320  -2.5728  -2.5341

     occupation numbers 
     1.0000   1.0000   1.0000   1.0000   1.0000   1.0000   1.0000   1.0000
     1.0000   1.0000   1.0000   1.0000   1.0000   1.0000   1.0000   1.0000
     1.0000   1.0000   1.0000   1.0000   1.0000   1.0000   1.0000   1.0000
     1.0000   1.0000   1.0000   1.0000   1.0000   1.0000   1.0000   1.0000
     1.0000   1.0000   1.0000   1.0000   1.0000   1.0000   1.0000   1.0000
     1.0000   1.0000   1.0000   1.0000   1.0000   1.0000   1.0000   1.0000
     1.0000   1.0000   1.0000   1.0000   1.0000   1.0000   1.0000   1.0000
     1.0000   1.0000   1.0000   1.0000   1.0000   1.0000   1.0000   1.0000
     1.0000   1.0000   1.0000   1.0000   1.0000   1.0000   1.0000   1.0000
     1.0000   1.0000   1.0000   1.0000   1.0000   1.0000   1.0000   1.0000
     1.0000   1.0000   1.0000   1.0000   1.0000   1.0000   1.0000   1.0000
     1.0000   1.0000   1.0000   1.0000   1.0000   1.0000   1.0000   1.0000
     1.0000   1.0000   1.0000   1.0000   1.0000   1.0000   1.0000   1.0000
     1.0000   1.0000   1.0000   1.0000   1.0373   1.0066   0.7244   0.4641
     0.1474   0.0635   0.0045   0.0002   0.0000   0.0000   0.0000   0.0000
     0.0000   0.0000   0.0000   0.0000   0.0000   0.0000   0.0000   0.0000
     0.0000   0.0000   0.0000   0.0000   0.0000   0.0000   0.0000   0.0000

          k = 0.5000-0.0000 0.0000 (109442 PWs)   bands (ev):

   -60.5897 -60.5681 -60.5488 -60.5430 -60.5292 -60.5272 -60.5152 -60.4795
   -60.4477 -36.7952 -36.7737 -36.7606 -36.7447 -36.7146 -36.7032 -36.6614
   -36.6498 -36.6392 -36.6281 -36.6264 -36.6141 -36.6063 -36.5987 -36.5977
   -36.5886 -36.5855 -36.5775 -36.5658 -36.5618 -36.5548 -36.5518 -36.5439
   -36.5254 -36.5185 -36.5113 -36.4758 -18.8395 -18.6085 -18.5103 -18.0186
   -17.9946 -17.8998 -17.8928 -17.8466 -17.7882 -17.6581 -17.6379 -17.6330
   -17.5740 -17.5721 -17.5479 -17.4512 -17.4284 -17.3695 -10.3486 -10.3069
   -10.1182 -10.0502  -9.8034  -9.7778  -9.7499  -9.7134  -9.6696  -9.6549
    -9.5551  -9.5067  -9.4630  -9.0798  -8.9907  -8.9338  -8.8819  -8.8717
    -8.7780  -8.7513  -8.6781  -8.6146  -8.5845  -8.1652  -8.1326  -8.0686
    -8.0550  -8.0178  -7.9860  -7.9191  -7.8766  -7.8731  -7.8500  -7.5306
    -7.4752  -7.4396  -7.3152  -7.2805  -7.2245  -7.0857  -7.0095  -6.9378
    -6.9288  -6.8903  -6.8696  -6.8065  -6.7463  -6.6913  -6.6716  -6.5671
    -6.4998  -6.2772  -6.2119  -6.1173  -5.6579  -5.6440  -5.5886  -5.5152
    -5.4233  -5.3946  -5.3298  -5.2169  -5.0896  -3.3231  -3.2580  -3.2022
    -3.1622  -3.1064  -3.0727  -3.0225  -2.9662  -2.9205  -2.9008  -2.8974
    -2.8662  -2.8146  -2.8081  -2.7334  -2.6597  -2.6454  -2.5819  -2.5079

     occupation numbers 
     1.0000   1.0000   1.0000   1.0000   1.0000   1.0000   1.0000   1.0000
     1.0000   1.0000   1.0000   1.0000   1.0000   1.0000   1.0000   1.0000
     1.0000   1.0000   1.0000   1.0000   1.0000   1.0000   1.0000   1.0000
     1.0000   1.0000   1.0000   1.0000   1.0000   1.0000   1.0000   1.0000
     1.0000   1.0000   1.0000   1.0000   1.0000   1.0000   1.0000   1.0000
     1.0000   1.0000   1.0000   1.0000   1.0000   1.0000   1.0000   1.0000
     1.0000   1.0000   1.0000   1.0000   1.0000   1.0000   1.0000   1.0000
     1.0000   1.0000   1.0000   1.0000   1.0000   1.0000   1.0000   1.0000
     1.0000   1.0000   1.0000   1.0000   1.0000   1.0000   1.0000   1.0000
     1.0000   1.0000   1.0000   1.0000   1.0000   1.0000   1.0000   1.0000
     1.0000   1.0000   1.0000   1.0000   1.0000   1.0000   1.0000   1.0000
     1.0000   1.0000   1.0000   1.0000   1.0000   1.0000   1.0000   1.0000
     1.0000   1.0000   1.0000   1.0000   1.0000   1.0000   1.0000   1.0000
     1.0000   1.0000   1.0000   1.0000   1.0502   1.0227   0.8208   0.4285
     0.0946   0.0498   0.0085   0.0001   0.0000   0.0000   0.0000   0.0000
     0.0000   0.0000   0.0000   0.0000   0.0000   0.0000   0.0000   0.0000
     0.0000   0.0000   0.0000   0.0000   0.0000   0.0000   0.0000   0.0000

     the Fermi energy is    -5.5097 ev

!    total energy              =   -6417.93190853 Ry
     total all-electron energy =   -156244.800095 Ry
     estimated scf accuracy    <          9.5E-13 Ry
     smearing contrib. (-TS)   =       0.00201026 Ry
     internal energy E=F+TS    =   -6417.93391879 Ry

     The total energy is F=E-TS. E is the sum of the following terms:
     one-electron contribution =  -14650.64853768 Ry
     hartree contribution      =    7310.82443262 Ry
     xc contribution           =    -282.71490434 Ry
     ewald contribution        =    6223.63407606 Ry
     one-center paw contrib.   =   -5019.02898546 Ry
      -> PAW hartree energy AE =      68.54283265 Ry
      -> PAW hartree energy PS =     -68.10692838 Ry
      -> PAW xc energy AE      =    -235.88390430 Ry
      -> PAW xc energy PS      =      16.66115518 Ry
      -> total E_H with PAW    =    7311.26033689 Ry
      -> total E_XC with PAW   =    -501.93765346 Ry

     convergence has been achieved in  42 iterations

     negative rho (up, down):  1.333E-03 0.000E+00

     Forces acting on atoms (cartesian axes, Ry/au):

     atom    1 type  1   force =    -0.01488844    0.00322206    0.00000000
     atom    2 type  2   force =     0.00424225    0.00921638    0.03972797
     atom    3 type  2   force =     0.00424225    0.00921638   -0.03972797
     atom    4 type  1   force =     0.00332992   -0.01768609    0.00000000
     atom    5 type  2   force =    -0.00733082    0.00093894    0.00910628
     atom    6 type  2   force =    -0.00733082    0.00093894   -0.00910628
     atom    7 type  1   force =     0.00820115   -0.03470308    0.00000000
     atom    8 type  2   force =    -0.00587308    0.00265212   -0.00442864
     atom    9 type  2   force =    -0.00587308    0.00265212    0.00442864
     atom   10 type  1   force =    -0.01827426    0.00583179    0.00000000
     atom   11 type  2   force =     0.00702160   -0.01257535    0.00358781
     atom   12 type  2   force =     0.00702160   -0.01257535   -0.00358781
     atom   13 type  1   force =     0.01132037    0.02288187    0.00000000
     atom   14 type  2   force =    -0.00189647   -0.00322490   -0.01506140
     atom   15 type  2   force =    -0.00189647   -0.00322490    0.01506140
     atom   16 type  1   force =     0.02358147    0.01338832    0.00000000
     atom   17 type  2   force =    -0.00530200    0.00061003   -0.02090722
     atom   18 type  2   force =    -0.00530200    0.00061003    0.02090722
     atom   19 type  1   force =    -0.01820112    0.03444461    0.00000000
     atom   20 type  2   force =     0.00919139    0.00219567    0.02048926
     atom   21 type  2   force =     0.00919139    0.00219567   -0.02048926
     atom   22 type  1   force =     0.01000650   -0.00645399    0.00000000
     atom   23 type  2   force =     0.00177438   -0.00244291   -0.01382781
     atom   24 type  2   force =     0.00177438   -0.00244291    0.01382781
     atom   25 type  1   force =     0.00242675   -0.03399175    0.00000000
     atom   26 type  2   force =    -0.00557842    0.00916317   -0.00396914
     atom   27 type  2   force =    -0.00557842    0.00916317    0.00396914
     The non-local contrib.  to forces
     atom    1 type  1   force =     0.00293167   -0.02159211    0.00000000
     atom    2 type  2   force =    -0.00040990   -0.00082959   -0.25582689
     atom    3 type  2   force =    -0.00040990   -0.00082959    0.25582689
     atom    4 type  1   force =     0.00301081    0.01622991    0.00000000
     atom    5 type  2   force =     0.00223973   -0.00083714   -0.27139330
     atom    6 type  2   force =     0.00223973   -0.00083714    0.27139330
     atom    7 type  1   force =    -0.00445646    0.00289735    0.00000000
     atom    8 type  2   force =    -0.00139581    0.00095393   -0.27838993
     atom    9 type  2   force =    -0.00139581    0.00095393    0.27838993
     atom   10 type  1   force =    -0.01153732   -0.01054675    0.00000000
     atom   11 type  2   force =    -0.00151016   -0.00562953   -0.27535909
     atom   12 type  2   force =    -0.00151016   -0.00562953    0.27535909
     atom   13 type  1   force =    -0.01864885    0.00038681    0.00000000
     atom   14 type  2   force =     0.00102992   -0.00464167   -0.28436202
     atom   15 type  2   force =     0.00102992   -0.00464167    0.28436202
     atom   16 type  1   force =     0.00317496    0.00280045    0.00000000
     atom   17 type  2   force =    -0.01142475   -0.00325480   -0.28339402
     atom   18 type  2   force =    -0.01142475   -0.00325480    0.28339402
     atom   19 type  1   force =     0.00771379   -0.02206208    0.00000000
     atom   20 type  2   force =     0.00333465   -0.00155123   -0.27083477
     atom   21 type  2   force =     0.00333465   -0.00155123    0.27083477
     atom   22 type  1   force =     0.00857906   -0.00310102    0.00000000
     atom   23 type  2   force =     0.00445696    0.00923979   -0.28527114
     atom   24 type  2   force =     0.00445696    0.00923979    0.28527114
     atom   25 type  1   force =     0.01520005    0.02846772    0.00000000
     atom   26 type  2   force =     0.00095931    0.00984494   -0.27936751
     atom   27 type  2   force =     0.00095931    0.00984494    0.27936751
     The ionic contribution  to forces
     atom    1 type  1   force =    -0.03040188    0.86361939    0.00000000
     atom    2 type  2   force =     0.21167635    0.39993640   35.65206264
     atom    3 type  2   force =     0.21167635    0.39993640  -35.65206264
     atom    4 type  1   force =     0.24175045   -0.79300913    0.00000000
     atom    5 type  2   force =    -0.14104036    0.05847624   36.01866220
     atom    6 type  2   force =    -0.14104036    0.05847624  -36.01866220
     atom    7 type  1   force =     0.16094457   -0.76457850    0.00000000
     atom    8 type  2   force =    -0.09860907    0.03735987   37.09719153
     atom    9 type  2   force =    -0.09860907    0.03735987  -37.09719153
     atom   10 type  1   force =    -0.30028023    1.01475072    0.00000000
     atom   11 type  2   force =     0.16431753   -0.22268499   36.41924704
     atom   12 type  2   force =     0.16431753   -0.22268499  -36.41924704
     atom   13 type  1   force =     0.79856783    0.48957148    0.00000000
     atom   14 type  2   force =    -0.13201519    0.02814890   36.31104763
     atom   15 type  2   force =    -0.13201519    0.02814890  -36.31104763
     atom   16 type  1   force =     1.18492265    0.25699192    0.00000000
     atom   17 type  2   force =     0.07814774   -0.06667144   36.19192670
     atom   18 type  2   force =     0.07814774   -0.06667144  -36.19192670
     atom   19 type  1   force =    -0.81114979    1.03275033    0.00000000
     atom   20 type  2   force =     0.17808924    0.13739801   36.92932087
     atom   21 type  2   force =     0.17808924    0.13739801  -36.92932087
     atom   22 type  1   force =    -0.64632523   -0.52051721   -0.00000000
     atom   23 type  2   force =    -0.06277973   -0.26839234   36.50138901
     atom   24 type  2   force =    -0.06277973   -0.26839234  -36.50138901
     atom   25 type  1   force =    -0.50487174   -1.75640665    0.00000000
     atom   26 type  2   force =    -0.24436483   -0.01515682   36.55652144
     atom   27 type  2   force =    -0.24436483   -0.01515682  -36.55652144
     The local contribution  to forces
     atom    1 type  1   force =     0.01318249   -0.84003954   -0.00000000
     atom    2 type  2   force =    -0.20611940   -0.38871517  -35.35538720
     atom    3 type  2   force =    -0.20611940   -0.38871517   35.35538720
     atom    4 type  1   force =    -0.24166902    0.76042653    0.00000000
     atom    5 type  2   force =     0.13011430   -0.05640722  -35.73919797
     atom    6 type  2   force =     0.13011430   -0.05640722   35.73919797
     atom    7 type  1   force =    -0.14899060    0.72801136    0.00000000
     atom    8 type  2   force =     0.09254612   -0.03536678  -36.82423187
     atom    9 type  2   force =     0.09254612   -0.03536678   36.82423187
     atom   10 type  1   force =     0.29375162   -0.99943525   -0.00000000
     atom   11 type  2   force =    -0.15467534    0.21382161  -36.14148969
     atom   12 type  2   force =    -0.15467534    0.21382161   36.14148969
     atom   13 type  1   force =    -0.77014411   -0.46743947    0.00000000
     atom   14 type  2   force =     0.12915091   -0.02708052  -36.04462062
     atom   15 type  2   force =     0.12915091   -0.02708052   36.04462062
     atom   16 type  1   force =    -1.16513969   -0.24699564    0.00000000
     atom   17 type  2   force =    -0.07276917    0.07047877  -35.93303081
     atom   18 type  2   force =    -0.07276917    0.07047877   35.93303081
     atom   19 type  1   force =     0.78614646   -0.97813184   -0.00000000
     atom   20 type  2   force =    -0.17077765   -0.13322793  -36.63722051
     atom   21 type  2   force =    -0.17077765   -0.13322793   36.63722051
     atom   22 type  1   force =     0.64849467    0.51744289   -0.00000000
     atom   23 type  2   force =     0.06009561    0.25630229  -36.23304840
     atom   24 type  2   force =     0.06009561    0.25630229   36.23304840
     atom   25 type  1   force =     0.49274709    1.69637608    0.00000000
     atom   26 type  2   force =     0.23754986    0.01582908  -36.28302851
     atom   27 type  2   force =     0.23754986    0.01582908   36.28302851
     The core correction contribution to forces
     atom    1 type  1   force =    -0.00059979    0.00123447   -0.00000000
     atom    2 type  2   force =    -0.00090418   -0.00117523   -0.00112093
     atom    3 type  2   force =    -0.00090418   -0.00117523    0.00112093
     atom    4 type  1   force =     0.00023786   -0.00133307   -0.00000000
     atom    5 type  2   force =     0.00135570   -0.00029280    0.00103528
     atom    6 type  2   force =     0.00135570   -0.00029280   -0.00103528
     atom    7 type  1   force =     0.00070470   -0.00103258   -0.00000000
     atom    8 type  2   force =     0.00158574   -0.00029465    0.00100142
     atom    9 type  2   force =     0.00158574   -0.00029465   -0.00100142
     atom   10 type  1   force =    -0.00020825    0.00106249    0.00000000
     atom   11 type  2   force =    -0.00111081    0.00191770    0.00118908
     atom   12 type  2   force =    -0.00111081    0.00191770   -0.00118908
     atom   13 type  1   force =     0.00154529    0.00036247   -0.00000000
     atom   14 type  2   force =    -0.00006218    0.00034789    0.00287328
     atom   15 type  2   force =    -0.00006218    0.00034789   -0.00287328
     atom   16 type  1   force =     0.00062278    0.00059216    0.00000000
     atom   17 type  2   force =     0.00074388    0.00005739    0.00359088
     atom   18 type  2   force =     0.00074388    0.00005739   -0.00359088
     atom   19 type  1   force =    -0.00091258    0.00188821    0.00000000
     atom   20 type  2   force =    -0.00145500   -0.00042303   -0.00077625
     atom   21 type  2   force =    -0.00145500   -0.00042303    0.00077625
     atom   22 type  1   force =    -0.00074191   -0.00027946   -0.00000000
     atom   23 type  2   force =     0.00000152    0.00040722    0.00310262
     atom   24 type  2   force =     0.00000152    0.00040722   -0.00310262
[...]
     atom   13 type  1   force =     0.00000551    0.00000388    0.00000000
     atom   14 type  2   force =    -0.00000302   -0.00000231    0.00000284
     atom   15 type  2   force =    -0.00000302   -0.00000231   -0.00000284
     atom   16 type  1   force =     0.00000132    0.00000186    0.00000000
     atom   17 type  2   force =    -0.00000452    0.00000025    0.00000420
     atom   18 type  2   force =    -0.00000452    0.00000025   -0.00000420
     atom   19 type  1   force =     0.00000605   -0.00000058    0.00000000
     atom   20 type  2   force =     0.00000328   -0.00000159    0.00000115
     atom   21 type  2   force =     0.00000328   -0.00000159   -0.00000115
     atom   22 type  1   force =    -0.00000382    0.00000137    0.00000000
     atom   23 type  2   force =    -0.00000501    0.00000110    0.00000408
     atom   24 type  2   force =    -0.00000501    0.00000110   -0.00000408
     atom   25 type  1   force =     0.00000048    0.00000613    0.00000000
     atom   26 type  2   force =     0.00000457    0.00000160    0.00000421
     atom   27 type  2   force =     0.00000457    0.00000160   -0.00000421
     The non-local contrib.  to forces
     atom    1 type  1   force =    -0.00913531   -0.00527915    0.00000000
     atom    2 type  2   force =     0.00839765   -0.00422220   -0.27654885
     atom    3 type  2   force =     0.00839765   -0.00422220    0.27654885
     atom    4 type  1   force =    -0.00000127    0.00819865    0.00000000
     atom    5 type  2   force =     0.00054498    0.00937518   -0.27655607
     atom    6 type  2   force =     0.00054498    0.00937518    0.27655607
     atom    7 type  1   force =     0.00710521   -0.00409557    0.00000000
     atom    8 type  2   force =    -0.00000223    0.00000694   -0.27363224
     atom    9 type  2   force =    -0.00000223    0.00000694    0.27363224
     atom   10 type  1   force =     0.00000205   -0.01831956    0.00000000
     atom   11 type  2   force =    -0.00839199   -0.00421689   -0.27655638
     atom   12 type  2   force =    -0.00839199   -0.00421689    0.27655638
     atom   13 type  1   force =    -0.01586439    0.00915589    0.00000000
     atom   14 type  2   force =    -0.00000032   -0.00000351   -0.27105994
     atom   15 type  2   force =    -0.00000032   -0.00000351    0.27105994
     atom   16 type  1   force =    -0.00710276   -0.00409562    0.00000000
     atom   17 type  2   force =    -0.00784788   -0.00515806   -0.27655038
     atom   18 type  2   force =    -0.00784788   -0.00515806    0.27655038
     atom   19 type  1   force =     0.00913525   -0.00528408    0.00000000
     atom   20 type  2   force =     0.00000132   -0.00000654   -0.28714206
     atom   21 type  2   force =     0.00000132   -0.00000654    0.28714206
     atom   22 type  1   force =     0.01586447    0.00914888    0.00000000
     atom   23 type  2   force =    -0.00055570    0.00938079   -0.27655166
     atom   24 type  2   force =    -0.00055570    0.00938079    0.27655166
     atom   25 type  1   force =    -0.00000860    0.01056278    0.00000000
     atom   26 type  2   force =     0.00785274   -0.00516126   -0.27654532
     atom   27 type  2   force =     0.00785274   -0.00516126    0.27654532
     The ionic contribution  to forces
     atom    1 type  1   force =     0.71770070    0.41462593   -0.00000000
     atom    2 type  2   force =    -0.06349109    0.31471053   36.38194002
     atom    3 type  2   force =    -0.06349109    0.31471053  -36.38194002
     atom    4 type  1   force =     0.00010507   -1.05104229    0.00000000
     atom    5 type  2   force =     0.24089189   -0.21238888   36.38208316
     atom    6 type  2   force =     0.24089189   -0.21238888  -36.38208316
     atom    7 type  1   force =    -0.91095930    0.52527318    0.00000000
     atom    8 type  2   force =    -0.00007333   -0.00011546   37.39820729
     atom    9 type  2   force =    -0.00007333   -0.00011546  -37.39820729
     atom   10 type  1   force =    -0.00066121    1.81690201   -0.00000000
     atom   11 type  2   force =     0.06339480    0.31467660   36.38302269
     atom   12 type  2   force =     0.06339480    0.31467660  -36.38302269
     atom   13 type  1   force =     1.57339817   -0.90816875   -0.00000000
     atom   14 type  2   force =    -0.00009533    0.00016717   34.80341968
     atom   15 type  2   force =    -0.00009533    0.00016717  -34.80341968
     atom   16 type  1   force =     0.91049786    0.52489929   -0.00000000
     atom   17 type  2   force =     0.30429239   -0.10259337   36.38179290
     atom   18 type  2   force =     0.30429239   -0.10259337  -36.38179290
     atom   19 type  1   force =    -0.71733551    0.41465336   -0.00000000
     atom   20 type  2   force =     0.00015522    0.00000353   37.03778506
     atom   21 type  2   force =     0.00015522    0.00000353  -37.03778506
     atom   22 type  1   force =    -1.57339119   -0.90759845   -0.00000000
     atom   23 type  2   force =    -0.24078703   -0.21217602   36.38210205
     atom   24 type  2   force =    -0.24078703   -0.21217602  -36.38210205
     atom   25 type  1   force =     0.00059728   -0.82931213    0.00000000
     atom   26 type  2   force =    -0.30426346   -0.10240018   36.38137252
     atom   27 type  2   force =    -0.30426346   -0.10240018  -36.38137252
     The local contribution  to forces
     atom    1 type  1   force =    -0.70918407   -0.40969391    0.00000000
     atom    2 type  2   force =     0.05512253   -0.31120892  -36.10686989
     atom    3 type  2   force =     0.05512253   -0.31120892   36.10686989
     atom    4 type  1   force =    -0.00010434    1.04381742    0.00000000
     atom    5 type  2   force =    -0.24204702    0.20338611  -36.10700864
     atom    6 type  2   force =    -0.24204702    0.20338611   36.10700864
     atom    7 type  1   force =     0.90469302   -0.52166199    0.00000000
     atom    8 type  2   force =     0.00007407    0.00011089  -37.12490217
     atom    9 type  2   force =     0.00007407    0.00011089   37.12490217
     atom   10 type  1   force =     0.00065971   -1.80015264    0.00000000
     atom   11 type  2   force =    -0.05502495   -0.31117844  -36.10795597
     atom   12 type  2   force =    -0.05502495   -0.31117844   36.10795597
     atom   13 type  1   force =    -1.55888515    0.89979980    0.00000000
     atom   14 type  2   force =     0.00009263   -0.00016626  -34.53525321
     atom   15 type  2   force =     0.00009263   -0.00016626   34.53525321
     atom   16 type  1   force =    -0.90423208   -0.52128514    0.00000000
     atom   17 type  2   force =    -0.29708149    0.10808937  -36.10672029
     atom   18 type  2   force =    -0.29708149    0.10808937   36.10672029
     atom   19 type  1   force =     0.70881940   -0.40972466   -0.00000000
     atom   20 type  2   force =    -0.00015346    0.00000123  -36.75238087
     atom   21 type  2   force =    -0.00015346    0.00000123   36.75238087
     atom   22 type  1   force =     1.55887965    0.89923365   -0.00000000
     atom   23 type  2   force =     0.24194553    0.20317470  -36.10702803
     atom   24 type  2   force =     0.24194553    0.20317470   36.10702803
     atom   25 type  1   force =    -0.00058890    0.81946450   -0.00000000
     atom   26 type  2   force =     0.29704772    0.10790078  -36.10630494
     atom   27 type  2   force =     0.29704772    0.10790078   36.10630494
     The core correction contribution to forces
     atom    1 type  1   force =     0.00061309    0.00035479   -0.00000000
     atom    2 type  2   force =    -0.00002446    0.00071635    0.00148161
     atom    3 type  2   force =    -0.00002446    0.00071635   -0.00148161
     atom    4 type  1   force =     0.00000020   -0.00096772   -0.00000000
     atom    5 type  2   force =     0.00060845   -0.00037785    0.00148227
     atom    6 type  2   force =     0.00060845   -0.00037785   -0.00148227
     atom    7 type  1   force =    -0.00083869    0.00048353   -0.00000000
     atom    8 type  2   force =    -0.00000013   -0.00000036    0.00032738
     atom    9 type  2   force =    -0.00000013   -0.00000036   -0.00032738
     atom   10 type  1   force =    -0.00000036    0.00156691    0.00000000
     atom   11 type  2   force =     0.00002366    0.00071623    0.00148171
     atom   12 type  2   force =     0.00002366    0.00071623   -0.00148171
     atom   13 type  1   force =     0.00135694   -0.00078306   -0.00000000
     atom   14 type  2   force =    -0.00000001    0.00000028    0.00289629
     atom   15 type  2   force =    -0.00000001    0.00000028   -0.00289629
     atom   16 type  1   force =     0.00083837    0.00048336   -0.00000000
     atom   17 type  2   force =     0.00063249   -0.00033770    0.00148194
     atom   18 type  2   force =     0.00063249   -0.00033770   -0.00148194
     atom   19 type  1   force =    -0.00061311    0.00035472    0.00000000
     atom   20 type  2   force =     0.00000021    0.00000015    0.00173901
     atom   21 type  2   force =     0.00000021    0.00000015   -0.00173901
     atom   22 type  1   force =    -0.00135685   -0.00078271   -0.00000000
     atom   23 type  2   force =    -0.00060783   -0.00037838    0.00148174
     atom   24 type  2   force =    -0.00060783   -0.00037838   -0.00148174
     atom   25 type  1   force =     0.00000066   -0.00070906    0.00000000
     atom   26 type  2   force =    -0.00063246   -0.00033774    0.00148196
     atom   27 type  2   force =    -0.00063246   -0.00033774   -0.00148196
     The Hubbard contrib.    to forces
     atom    1 type  1   force =     0.00000000    0.00000000    0.00000000
     atom    2 type  2   force =     0.00000000    0.00000000    0.00000000
     atom    3 type  2   force =     0.00000000    0.00000000    0.00000000
     atom    4 type  1   force =     0.00000000    0.00000000    0.00000000
     atom    5 type  2   force =     0.00000000    0.00000000    0.00000000
     atom    6 type  2   force =     0.00000000    0.00000000    0.00000000
     atom    7 type  1   force =     0.00000000    0.00000000    0.00000000
     atom    8 type  2   force =     0.00000000    0.00000000    0.00000000
     atom    9 type  2   force =     0.00000000    0.00000000    0.00000000
     atom   10 type  1   force =     0.00000000    0.00000000    0.00000000
     atom   11 type  2   force =     0.00000000    0.00000000    0.00000000
     atom   12 type  2   force =     0.00000000    0.00000000    0.00000000
     atom   13 type  1   force =     0.00000000    0.00000000    0.00000000
     atom   14 type  2   force =     0.00000000    0.00000000    0.00000000
     atom   15 type  2   force =     0.00000000    0.00000000    0.00000000
     atom   16 type  1   force =     0.00000000    0.00000000    0.00000000
     atom   17 type  2   force =     0.00000000    0.00000000    0.00000000
     atom   18 type  2   force =     0.00000000    0.00000000    0.00000000
     atom   19 type  1   force =     0.00000000    0.00000000    0.00000000
     atom   20 type  2   force =     0.00000000    0.00000000    0.00000000
     atom   21 type  2   force =     0.00000000    0.00000000    0.00000000
     atom   22 type  1   force =     0.00000000    0.00000000    0.00000000
     atom   23 type  2   force =     0.00000000    0.00000000    0.00000000
     atom   24 type  2   force =     0.00000000    0.00000000    0.00000000
     atom   25 type  1   force =     0.00000000    0.00000000    0.00000000
     atom   26 type  2   force =     0.00000000    0.00000000    0.00000000
     atom   27 type  2   force =     0.00000000    0.00000000    0.00000000
     The SCF correction term to forces
     atom    1 type  1   force =    -0.00000005    0.00000003    0.00000000
     atom    2 type  2   force =    -0.00000001   -0.00000002   -0.00000000
     atom    3 type  2   force =    -0.00000001   -0.00000002    0.00000000
     atom    4 type  1   force =    -0.00000005    0.00000001    0.00000000
     atom    5 type  2   force =    -0.00000005    0.00000000   -0.00000000
     atom    6 type  2   force =    -0.00000005    0.00000000    0.00000000
     atom    7 type  1   force =     0.00000002   -0.00000009    0.00000000
     atom    8 type  2   force =    -0.00000002   -0.00000002   -0.00000003
     atom    9 type  2   force =    -0.00000002   -0.00000002    0.00000003
     atom   10 type  1   force =     0.00000002   -0.00000001    0.00000000
     atom   11 type  2   force =     0.00000001    0.00000000    0.00000000
     atom   12 type  2   force =     0.00000001    0.00000000   -0.00000000
     atom   13 type  1   force =    -0.00000005   -0.00000000    0.00000000
     atom   14 type  2   force =     0.00000002    0.00000000    0.00000002
     atom   15 type  2   force =     0.00000002    0.00000000   -0.00000002
     atom   16 type  1   force =    -0.00000007   -0.00000004    0.00000000
     atom   17 type  2   force =    -0.00000002    0.00000001    0.00000003
     atom   18 type  2   force =    -0.00000002    0.00000001   -0.00000003
     atom   19 type  1   force =     0.00000002    0.00000007    0.00000000
     atom   20 type  2   force =    -0.00000000    0.00000003    0.00000000
     atom   21 type  2   force =    -0.00000000    0.00000003   -0.00000000
     atom   22 type  1   force =     0.00000011   -0.00000000    0.00000000
     atom   23 type  2   force =     0.00000002    0.00000001   -0.00000002
     atom   24 type  2   force =     0.00000002    0.00000001    0.00000002
     atom   25 type  1   force =     0.00000005    0.00000003   -0.00000000
     atom   26 type  2   force =     0.00000004   -0.00000000    0.00000000
     atom   27 type  2   force =     0.00000004   -0.00000000   -0.00000000

     Total force =     0.000030     Total SCF correction =     0.000000
     Energy error            =      1.0E-09 Ry
     Gradient error          =      8.0E-06 Ry/Bohr

     bfgs converged in  47 scf cycles and  46 bfgs steps
     (criteria: energy <  1.0E-06 Ry, force <  1.0E-05 Ry/Bohr)

     End of BFGS Geometry Optimization

     Final energy             =   -6417.9563441742 Ry

     File ./out/nbse2_3x3.bfgs deleted, as requested
Begin final coordinates

ATOMIC_POSITIONS (angstrom)
Nb              -0.0333786986        1.9885244914        0.0000000000
Se               1.7146471033        0.9987904965        1.6796781715
Se               1.7146471033        0.9987904965       -1.6796781715
Nb              -1.7387999890        5.0672036023        0.0000000000
Se              -0.0165027950        3.9972863515        1.6796946542
Se              -0.0165027950        3.9972863515       -1.6796946542
Nb              -3.4291436671        7.9950401940        0.0000000000
Se              -1.7388017358        7.0190727927        1.7181406559
Se              -1.7388017358        7.0190727927       -1.7181406559
Nb               3.4705075065        1.9180252691        0.0000000000
Se               5.2262688674        0.9987702457        1.6797411655
Se               5.2262688674        0.9987702457       -1.6797411655
Nb               1.6574955922        5.0582067071        0.0000000000
Se               3.4705146259        4.0115047606        1.6118876101
Se               3.4705146259        4.0115047606       -1.6118876101
Nb              -0.0484528233        7.9950616787        0.0000000000
Se               1.7392976880        7.0384307062        1.6796729105
Se               1.7392976880        7.0384307062       -1.6796729105
Nb               6.9742708208        1.9885141884        0.0000000000
Se               8.6797552572        1.0039125017        1.7162706917
Se               8.6797552572        1.0039125017       -1.7162706917
Nb               5.2835292326        5.0581969994        0.0000000000
Se               6.9575393921        3.9972509806        1.6796872612
Se               6.9575393921        3.9972509806       -1.6796872612
Nb               3.4704625098        8.0574039301        0.0000000000
Se               5.2016698684        7.0384313168        1.6796527293
Se               5.2016698684        7.0384313168       -1.6796527293
End final coordinates



     Writing all to output data dir ./out/nbse2_3x3.save/ :
     XML data file, charge density, pseudopotentials, collected wavefunctions
 
     init_run     :      8.95s CPU     10.39s WALL (       1 calls)
     electrons    :  16396.72s CPU  16933.70s WALL (      47 calls)
     update_pot   :     28.23s CPU     28.68s WALL (      46 calls)
     forces       :     72.97s CPU     78.17s WALL (      47 calls)

     Called by init_run:
     wfcinit      :      4.71s CPU      4.91s WALL (       1 calls)
     wfcinit:atom :      0.02s CPU      0.03s WALL (       3 calls)
     wfcinit:wfcr :      4.40s CPU      4.51s WALL (       3 calls)
     potinit      :      0.57s CPU      0.79s WALL (       1 calls)
     hinit0       :      0.26s CPU      1.06s WALL (       1 calls)

     Called by electrons:
     c_bands      :  12863.07s CPU  13134.14s WALL (    1308 calls)
     sum_band     :   2547.59s CPU   2712.71s WALL (    1308 calls)
     v_of_rho     :    390.68s CPU    395.18s WALL (    1323 calls)
     v_h          :     23.97s CPU     24.26s WALL (    1323 calls)
     v_xc         :    379.39s CPU    383.99s WALL (    1370 calls)
     newd         :    203.86s CPU    277.38s WALL (    1323 calls)
     PAW_pot      :    300.39s CPU    301.68s WALL (    1369 calls)
     mix_rho      :     59.91s CPU     60.47s WALL (    1308 calls)

     Called by c_bands:
     init_us_2    :    117.44s CPU    118.80s WALL (    8130 calls)
     cegterg      :  11437.07s CPU  11691.72s WALL (    3924 calls)

     Called by sum_band:
     sum_band:wei :     12.84s CPU     12.93s WALL (    1308 calls)
     sum_band:loo :   2153.42s CPU   2191.32s WALL (    1308 calls)
     sum_band:buf :     13.04s CPU     13.28s WALL (    3924 calls)
     sum_band:ini :     51.96s CPU     52.46s WALL (    3924 calls)
     sum_band:cal :    218.97s CPU    219.83s WALL (    4062 calls)
     sum_band:bec :      3.66s CPU      3.91s WALL (    4062 calls)
     addusdens    :    190.55s CPU    315.72s WALL (    1308 calls)
                                        0.00s GPU  (    1308 calls)
     addusd:skk   :     11.23s CPU     30.22s WALL (    2616 calls)
                                        0.00s GPU  (    2616 calls)

     Called by *egterg:
     cdiaghg      :   1137.44s CPU   1142.91s WALL (   14023 calls)
     cegterg:over :    501.39s CPU    504.22s WALL (   10333 calls)
     cegterg:upda :    271.94s CPU    277.09s WALL (   10333 calls)
     cegterg:last :    457.97s CPU    460.60s WALL (    6656 calls)
     h_psi        :   8265.29s CPU   8468.32s WALL (   14260 calls)
     s_psi        :    451.00s CPU    453.69s WALL (   14260 calls)
     g_psi        :     15.68s CPU     16.03s WALL (   10333 calls)

     Called by h_psi:
     h_psi:calbec :    525.19s CPU    528.26s WALL (   14260 calls)
     vloc_psi     :   7262.95s CPU   7450.61s WALL (   14260 calls)
                                        0.00s GPU  (   14260 calls)
     add_vuspsi   :    454.93s CPU    457.86s WALL (   14260 calls)

     General routines
     calbec       :    775.07s CPU    779.48s WALL (   18886 calls)
     fft          :    234.20s CPU    236.56s WALL (   17700 calls)
     ffts         :     16.57s CPU     16.80s WALL (    2631 calls)
     fftw         :   7923.85s CPU   8102.12s WALL ( 2951276 calls)
     interpolate  :     27.88s CPU     28.25s WALL (    1323 calls)
 
     Parallel routines

     PAW routines
     PAW_pot      :    300.39s CPU    301.68s WALL (    1369 calls)
     PAW_symme    :      5.80s CPU      5.86s WALL (    2677 calls)
 
     PWSCF        :      4h35m CPU      4h45m WALL

 
   This run was terminated on:  21: 4: 5  21Jun2026            

=------------------------------------------------------------------------------=
   JOB DONE.
=------------------------------------------------------------------------------=
