
     Program PWSCF v.7.5 starts on 21Jun2026 at 21: 4:11 

     This program is part of the open-source Quantum ESPRESSO suite
     for quantum simulation of materials; please cite
         "P. Giannozzi et al., J. Phys.:Condens. Matter 21 395502 (2009);
         "P. Giannozzi et al., J. Phys.:Condens. Matter 29 465901 (2017);
         "P. Giannozzi et al., J. Chem. Phys. 152 154105 (2020);
          URL http://www.quantum-espresso.org", 
     in publications or presentations arising from this work. More details at
     http://www.quantum-espresso.org/quote

     Parallel version (MPI), running on   136 processors

     MPI processes distributed on     2 nodes
     73715 MiB available memory on the printing compute node when the environment starts
 
     Waiting for input...
     Reading input from standard input

     Current dimensions of program PWSCF are:
     Max number of different atomic species (ntypx) = 10
     Max number of k-points (npk) =  40000
     Max angular momentum in pseudopotentials (lmaxx) =  4
     file Nb.pbe-spn-kjpaw_psl.1.0.0.UPF: wavefunction(s)  4S 4P 4D renormalized
     file Se.pbe-n-kjpaw_psl.1.0.0.UPF: wavefunction(s)  4S renormalized
     Message from routine setup:
     using ibrav=0 with symmetry is DISCOURAGED, use correct ibrav instead
 
     K-points division:     npool     =       4
     R & G space division:  proc/nbgrp/npool/nimage =      34
     Subspace diagonalization in iterative solution of the eigenvalue problem:
     a serial algorithm will be used

 
     Parallelization info
     --------------------
     sticks:   dense  smooth     PW     G-vecs:    dense   smooth      PW
     Min         377     189     49                72901    25777    3444
     Max         378     190     52                72910    25783    3457
     Sum       12823    6433   1675              2478775   876529  117375
 
     Using Slab Decomposition
 


     bravais-lattice index     =            0
     lattice parameter (alat)  =      19.6883  a.u.
     unit-cell volume          =   13956.2510 (a.u.)^3
     number of atoms/cell      =           27
     number of atomic types    =            2
     number of electrons       =       225.00
     number of Kohn-Sham states=          136
     kinetic-energy cutoff     =      60.0000  Ry
     charge density cutoff     =     480.0000  Ry
     scf convergence threshold =      1.0E-12
     mixing beta               =       0.7000
     number of iterations used =            8  plain     mixing
     energy convergence thresh.=      1.0E-06
     force convergence thresh. =      1.0E-05
     Exchange-correlation= SLA  PW   PBX  PBC
                           (   1   4   3   4   0   0   0)
     nstep                     =           50


     celldm(1)=  19.688304  celldm(2)=   0.000000  celldm(3)=   0.000000
     celldm(4)=   0.000000  celldm(5)=   0.000000  celldm(6)=   0.000000

     crystal axes: (cart. coord. in units of alat)
               a(1) = (   1.000000   0.000000   0.000000 )  
               a(2) = (  -0.500000   0.866025   0.000000 )  
               a(3) = (   0.000000   0.000000   2.111608 )  

     reciprocal axes: (cart. coord. in units 2 pi/alat)
               b(1) = (  1.000000  0.577350  0.000000 )  
               b(2) = (  0.000000  1.154701  0.000000 )  
               b(3) = (  0.000000  0.000000  0.473573 )  


     PseudoPot. # 1 for Nb read from file:
     ../pseudos/Nb.pbe-spn-kjpaw_psl.1.0.0.UPF
     MD5 check sum: dcedcbb129af9a7271e4748e5febedb1
     Pseudo is Projector augmented-wave + core cor, Zval = 13.0
     Generated using &quot;atomic&quot; code by A. Dal Corso  v.6.2.2
     Shape of augmentation charge: PSQ
     Using radial grid of 1227 points,  6 beta functions with: 
                l(1) =   0
                l(2) =   0
                l(3) =   1
                l(4) =   1
                l(5) =   2
                l(6) =   2
     Q(r) pseudized with 0 coefficients 


     PseudoPot. # 2 for Se read from file:
     ../pseudos/Se.pbe-n-kjpaw_psl.1.0.0.UPF
     MD5 check sum: 12232cb78b362a7b0fca8da9cb95fd5e
     Pseudo is Projector augmented-wave + core cor, Zval =  6.0
     Generated using &quot;atomic&quot; code by A. Dal Corso  v.6.3
     Shape of augmentation charge: PSQ
     Using radial grid of 1211 points,  4 beta functions with: 
                l(1) =   0
                l(2) =   0
                l(3) =   1
                l(4) =   1
     Q(r) pseudized with 0 coefficients 


     atomic species   valence    mass     pseudopotential
     Nb               13.00    92.90638     Nb( 1.00)
     Se                6.00    78.97100     Se( 1.00)

      2 Sym. Ops. (no inversion) found


                                    s                        frac. trans.

      isym =  1     identity                                     

 cryst.   s( 1) = (     1          0          0      )
                  (     0          1          0      )
                  (     0          0          1      )

 cart.    s( 1) = (  1.0000000  0.0000000  0.0000000 )
                  (  0.0000000  1.0000000  0.0000000 )
                  (  0.0000000  0.0000000  1.0000000 )


      isym =  2     inv. 180 deg rotation - cart. axis [0,0,1]   

 cryst.   s( 2) = (     1          0          0      )
                  (     0          1          0      )
                  (     0          0         -1      )

 cart.    s( 2) = (  1.0000000  0.0000000  0.0000000 )
                  (  0.0000000  1.0000000  0.0000000 )
                  (  0.0000000  0.0000000 -1.0000000 )


   Cartesian axes

     site n.     atom                  positions (alat units)
         1        Nb     tau(   1) = (  -0.0083123   0.1876510   0.0000000  )
         2        Se     tau(   2) = (   0.1683241   0.0971815   0.1563079  )
         3        Se     tau(   3) = (   0.1683241   0.0971815  -0.1563079  )
         4        Nb     tau(   4) = (  -0.1741712   0.4767869   0.0000000  )
         5        Se     tau(   5) = (  -0.0003530   0.3846953   0.1588231  )
         6        Se     tau(   6) = (  -0.0003530   0.3846953  -0.1588231  )
         7        Nb     tau(   7) = (  -0.3325255   0.7702611   0.0000000  )
         8        Se     tau(   8) = (  -0.1686771   0.6724140   0.1638534  )
         9        Se     tau(   9) = (  -0.1686771   0.6724140  -0.1638534  )
        10        Nb     tau(  10) = (   0.3408378   0.1967884   0.0000000  )
        11        Se     tau(  11) = (   0.5003530   0.0964299   0.1638534  )
        12        Se     tau(  12) = (   0.5003530   0.0964299  -0.1638534  )
        13        Nb     tau(  13) = (   0.1658589   0.4806645   0.0000000  )
        14        Se     tau(  14) = (   0.3353438   0.3860615   0.1588231  )
        15        Se     tau(  15) = (   0.3353438   0.3860615  -0.1588231  )
        16        Nb     tau(  16) = (  -0.0083123   0.7650012   0.0000000  )
        17        Se     tau(  17) = (   0.1683241   0.6745317   0.1563079  )
        18        Se     tau(  18) = (   0.1683241   0.6745317  -0.1563079  )
        19        Nb     tau(  19) = (   0.6674745   0.1929109   0.0000000  )
        20        Se     tau(  20) = (   0.8313229   0.0950637   0.1638534  )
        21        Se     tau(  21) = (   0.8313229   0.0950637  -0.1638534  )
        22        Nb     tau(  22) = (   0.5083123   0.4859244   0.0000000  )
        23        Se     tau(  23) = (   0.6650092   0.3839438   0.1663686  )
        24        Se     tau(  24) = (   0.6650092   0.3839438  -0.1663686  )
        25        Nb     tau(  25) = (   0.3408378   0.7741387   0.0000000  )
        26        Se     tau(  26) = (   0.5003530   0.6737802   0.1638534  )
        27        Se     tau(  27) = (   0.5003530   0.6737802  -0.1638534  )

   Crystallographic axes

     site n.     atom                  positions (cryst. coord.)
         1        Nb     tau(   1) = (  0.1000280  0.2166807  0.0000000  )
         2        Se     tau(   2) = (  0.2244319  0.1122155  0.0740232  )
         3        Se     tau(   3) = (  0.2244319  0.1122155 -0.0740232  )
         4        Nb     tau(   4) = (  0.1011019  0.5505460  0.0000000  )
         5        Se     tau(   5) = (  0.2217509  0.4442079  0.0752143  )
         6        Se     tau(   6) = (  0.2217509  0.4442079 -0.0752143  )
         7        Nb     tau(   7) = (  0.1121849  0.8894209  0.0000000  )
         8        Se     tau(   8) = (  0.2195413  0.7764368  0.0775965  )
         9        Se     tau(   9) = (  0.2195413  0.7764368 -0.0775965  )
        10        Nb     tau(  10) = (  0.4544537  0.2272317  0.0000000  )
        11        Se     tau(  11) = (  0.5560269  0.1113477  0.0775965  )
        12        Se     tau(  12) = (  0.5560269  0.1113477 -0.0775965  )
        13        Nb     tau(  13) = (  0.4433706  0.5550235  0.0000000  )
        14        Se     tau(  14) = (  0.5582365  0.4457854  0.0752143  )
        15        Se     tau(  15) = (  0.5582365  0.4457854 -0.0752143  )
        16        Nb     tau(  16) = (  0.4333614  0.8833473  0.0000000  )
        17        Se     tau(  17) = (  0.5577652  0.7788822  0.0740232  )
        18        Se     tau(  18) = (  0.5577652  0.7788822 -0.0740232  )
        19        Nb     tau(  19) = (  0.7788516  0.2227543  0.0000000  )
        20        Se     tau(  20) = (  0.8862080  0.1097701  0.0775965  )
        21        Se     tau(  21) = (  0.8862080  0.1097701 -0.0775965  )
        22        Nb     tau(  22) = (  0.7888608  0.5610971  0.0000000  )
        23        Se     tau(  23) = (  0.8866793  0.4433401  0.0787876  )
        24        Se     tau(  24) = (  0.8866793  0.4433401 -0.0787876  )
        25        Nb     tau(  25) = (  0.7877870  0.8938984  0.0000000  )
        26        Se     tau(  26) = (  0.8893602  0.7780144  0.0775965  )
        27        Se     tau(  27) = (  0.8893602  0.7780144 -0.0775965  )

     number of k points=    10  Marzari-Vanderbilt smearing, width (Ry)=  0.0100
                       cart. coord. in units 2pi/alat
        k(    1) = (   0.0000000   0.0000000   0.0000000), wk =   0.1250000
        k(    2) = (   0.0000000   0.2886751   0.0000000), wk =   0.2500000
        k(    3) = (   0.0000000  -0.5773503   0.0000000), wk =   0.1250000
        k(    4) = (   0.2500000   0.4330127   0.0000000), wk =   0.2500000
        k(    5) = (  -0.2500000   0.1443376   0.0000000), wk =   0.2500000
        k(    6) = (   0.2500000   0.1443376   0.0000000), wk =   0.2500000
        k(    7) = (   0.5000000  -0.2886751   0.0000000), wk =   0.1250000
        k(    8) = (  -0.5000000  -0.2886751   0.0000000), wk =   0.1250000
        k(    9) = (  -0.2500000   0.4330127   0.0000000), wk =   0.2500000
        k(   10) = (   0.5000000  -0.0000000   0.0000000), wk =   0.2500000

                       cryst. coord.
        k(    1) = (   0.0000000   0.0000000   0.0000000), wk =   0.1250000
        k(    2) = (   0.0000000   0.2500000   0.0000000), wk =   0.2500000
        k(    3) = (   0.0000000  -0.5000000   0.0000000), wk =   0.1250000
        k(    4) = (   0.2500000   0.2500000   0.0000000), wk =   0.2500000
        k(    5) = (  -0.2500000   0.2500000   0.0000000), wk =   0.2500000
        k(    6) = (   0.2500000  -0.0000000   0.0000000), wk =   0.2500000
        k(    7) = (   0.5000000  -0.5000000   0.0000000), wk =   0.1250000
        k(    8) = (  -0.5000000   0.0000000   0.0000000), wk =   0.1250000
        k(    9) = (  -0.2500000   0.5000000   0.0000000), wk =   0.2500000
        k(   10) = (   0.5000000  -0.2500000   0.0000000), wk =   0.2500000

     Dense  grid:  2478775 G-vectors     FFT dimensions: ( 144, 144, 300)

     Smooth grid:   876529 G-vectors     FFT dimensions: ( 100, 100, 216)

     Dynamical RAM for                 wfc:       6.68 MB

     Dynamical RAM for     wfc (w. buffer):      26.74 MB

     Dynamical RAM for           str. fact:       2.22 MB

     Dynamical RAM for           local pot:       0.00 MB

     Dynamical RAM for          nlocal pot:      15.04 MB

     Dynamical RAM for                qrad:       3.52 MB

     Dynamical RAM for          rho,v,vnew:       7.61 MB

     Dynamical RAM for               rhoin:       2.54 MB

     Dynamical RAM for            rho*nmix:      17.80 MB

     Dynamical RAM for           G-vectors:       4.37 MB

     Dynamical RAM for          h,s,v(r/c):       3.39 MB

     Dynamical RAM for          <psi|beta>:       0.64 MB

     Dynamical RAM for                 psi:      13.37 MB

     Dynamical RAM for                hpsi:      13.37 MB

     Dynamical RAM for                spsi:      13.37 MB

     Dynamical RAM for      wfcinit/wfcrot:      13.79 MB

     Dynamical RAM for           addusdens:      57.56 MB

     Dynamical RAM for          addusforce:      66.81 MB

     Estimated static dynamical RAM per process >      72.49 MB

     Estimated max dynamical RAM per process >     157.10 MB

     Estimated total dynamical RAM >      19.09 GB
 ----2D----2D----2D----2D----2D----2D----2D----2D----2D----2D----2D----2D
  The code is running with the 2D cutoff
  Please refer to:
  Sohier, T., Calandra, M., & Mauri, F. (2017), 
  Density functional perturbation theory for gated two-dimensional heterostructu
 res:
  Theoretical developments and application to flexural phonons in graphene.
  Physical Review B, 96(7), 75448. https://doi.org/10.1103/PhysRevB.96.075448
 ----2D----2D----2D----2D----2D----2D----2D----2D----2D----2D----2D----2D

     Initial potential from superposition of free atoms

     starting charge     224.9869, renormalised to     225.0000

     negative rho (up, down):  1.373E-03 0.000E+00
     Starting wfcs are  189 randomized atomic wfcs
     Checking if some PAW data can be deallocated... 
       PAW data deallocated on   90 nodes for type:  1
       PAW data deallocated on   46 nodes for type:  2

     total cpu time spent up to now is       12.4 secs

     Self-consistent Calculation

     iteration #  1     ecut=    60.00 Ry     beta= 0.70
     Davidson diagonalization with overlap

---- Real-time Memory Report at c_bands before calling an iterative solver
           775 MiB given to the printing process from OS
             0 MiB allocation reported by mallinfo(arena+hblkhd)
         28747 MiB available memory on the node where the printing process lives
------------------
     ethr =  1.00E-02,  avg # of iterations =  2.0

     Threshold (ethr) on eigenvalues was too large:
     Diagonalizing with lowered threshold

     Davidson diagonalization with overlap

---- Real-time Memory Report at c_bands before calling an iterative solver
           813 MiB given to the printing process from OS
             0 MiB allocation reported by mallinfo(arena+hblkhd)
         29295 MiB available memory on the node where the printing process lives
------------------
     ethr =  2.79E-04,  avg # of iterations =  3.7

     negative rho (up, down):  1.200E-03 0.000E+00

     total cpu time spent up to now is       40.5 secs

     total energy              =   -6417.64641536 Ry
     estimated scf accuracy    <       0.84626480 Ry

     iteration #  2     ecut=    60.00 Ry     beta= 0.70
     Davidson diagonalization with overlap

---- Real-time Memory Report at c_bands before calling an iterative solver
           851 MiB given to the printing process from OS
             0 MiB allocation reported by mallinfo(arena+hblkhd)
         27340 MiB available memory on the node where the printing process lives
------------------
     ethr =  3.76E-04,  avg # of iterations =  7.5

     negative rho (up, down):  1.273E-03 0.000E+00

     total cpu time spent up to now is       57.9 secs

     total energy              =   -6417.05570807 Ry
     estimated scf accuracy    <       4.67199078 Ry

     iteration #  3     ecut=    60.00 Ry     beta= 0.70
     Davidson diagonalization with overlap

---- Real-time Memory Report at c_bands before calling an iterative solver
           868 MiB given to the printing process from OS
             0 MiB allocation reported by mallinfo(arena+hblkhd)
         26546 MiB available memory on the node where the printing process lives
------------------
     ethr =  3.76E-04,  avg # of iterations = 10.2

     negative rho (up, down):  1.224E-03 0.000E+00

     total cpu time spent up to now is       78.3 secs

     total energy              =   -6417.60921537 Ry
     estimated scf accuracy    <       3.73748952 Ry

     iteration #  4     ecut=    60.00 Ry     beta= 0.70
     Davidson diagonalization with overlap

---- Real-time Memory Report at c_bands before calling an iterative solver
           869 MiB given to the printing process from OS
             0 MiB allocation reported by mallinfo(arena+hblkhd)
         26450 MiB available memory on the node where the printing process lives
------------------
     ethr =  3.76E-04,  avg # of iterations =  4.3

     negative rho (up, down):  1.173E-03 0.000E+00

     total cpu time spent up to now is       94.0 secs

     total energy              =   -6417.84681994 Ry
     estimated scf accuracy    <       0.61302944 Ry

     iteration #  5     ecut=    60.00 Ry     beta= 0.70
     Davidson diagonalization with overlap

---- Real-time Memory Report at c_bands before calling an iterative solver
           870 MiB given to the printing process from OS
             0 MiB allocation reported by mallinfo(arena+hblkhd)
         26413 MiB available memory on the node where the printing process lives
------------------
     ethr =  2.72E-04,  avg # of iterations =  2.1

     negative rho (up, down):  1.160E-03 0.000E+00

     total cpu time spent up to now is      105.4 secs

     total energy              =   -6417.90455320 Ry
     estimated scf accuracy    <       0.35201484 Ry

     iteration #  6     ecut=    60.00 Ry     beta= 0.70
     Davidson diagonalization with overlap

---- Real-time Memory Report at c_bands before calling an iterative solver
           871 MiB given to the printing process from OS
             0 MiB allocation reported by mallinfo(arena+hblkhd)
         26345 MiB available memory on the node where the printing process lives
------------------
     ethr =  1.56E-04,  avg # of iterations =  2.1

     negative rho (up, down):  1.157E-03 0.000E+00

     total cpu time spent up to now is      116.7 secs

     total energy              =   -6417.93327694 Ry
     estimated scf accuracy    <       0.10359300 Ry

     iteration #  7     ecut=    60.00 Ry     beta= 0.70
     Davidson diagonalization with overlap

---- Real-time Memory Report at c_bands before calling an iterative solver
           874 MiB given to the printing process from OS
             0 MiB allocation reported by mallinfo(arena+hblkhd)
         26299 MiB available memory on the node where the printing process lives
------------------
     ethr =  4.60E-05,  avg # of iterations =  7.5

     negative rho (up, down):  1.174E-03 0.000E+00

     total cpu time spent up to now is      132.7 secs

     total energy              =   -6417.93767870 Ry
     estimated scf accuracy    <       0.08874073 Ry

     iteration #  8     ecut=    60.00 Ry     beta= 0.70
     Davidson diagonalization with overlap

---- Real-time Memory Report at c_bands before calling an iterative solver
           876 MiB given to the printing process from OS
             0 MiB allocation reported by mallinfo(arena+hblkhd)
         26265 MiB available memory on the node where the printing process lives
------------------
     ethr =  3.94E-05,  avg # of iterations =  4.6

     negative rho (up, down):  1.198E-03 0.000E+00

     total cpu time spent up to now is      147.6 secs

     total energy              =   -6417.94460397 Ry
     estimated scf accuracy    <       0.01534109 Ry

     iteration #  9     ecut=    60.00 Ry     beta= 0.70
     Davidson diagonalization with overlap

---- Real-time Memory Report at c_bands before calling an iterative solver
           876 MiB given to the printing process from OS
             0 MiB allocation reported by mallinfo(arena+hblkhd)
         26245 MiB available memory on the node where the printing process lives
------------------
     c_bands:  1 eigenvalues not converged
     ethr =  6.82E-06,  avg # of iterations = 11.6

     negative rho (up, down):  1.239E-03 0.000E+00

     total cpu time spent up to now is      167.6 secs

     total energy              =   -6417.94595284 Ry
     estimated scf accuracy    <       0.00841594 Ry

     iteration # 10     ecut=    60.00 Ry     beta= 0.70
     Davidson diagonalization with overlap

---- Real-time Memory Report at c_bands before calling an iterative solver
           877 MiB given to the printing process from OS
             0 MiB allocation reported by mallinfo(arena+hblkhd)
         26186 MiB available memory on the node where the printing process lives
------------------
     ethr =  3.74E-06,  avg # of iterations =  4.7

     negative rho (up, down):  1.266E-03 0.000E+00

     total cpu time spent up to now is      183.3 secs

     total energy              =   -6417.94595688 Ry
     estimated scf accuracy    <       0.00930773 Ry

     iteration # 11     ecut=    60.00 Ry     beta= 0.70
     Davidson diagonalization with overlap

---- Real-time Memory Report at c_bands before calling an iterative solver
           877 MiB given to the printing process from OS
             0 MiB allocation reported by mallinfo(arena+hblkhd)
         26163 MiB available memory on the node where the printing process lives
------------------
     ethr =  3.74E-06,  avg # of iterations =  1.4

     negative rho (up, down):  1.289E-03 0.000E+00

     total cpu time spent up to now is      194.0 secs

     total energy              =   -6417.94667542 Ry
     estimated scf accuracy    <       0.00126121 Ry

     iteration # 12     ecut=    60.00 Ry     beta= 0.70
     Davidson diagonalization with overlap

---- Real-time Memory Report at c_bands before calling an iterative solver
           877 MiB given to the printing process from OS
             0 MiB allocation reported by mallinfo(arena+hblkhd)
         26173 MiB available memory on the node where the printing process lives
------------------
     ethr =  5.61E-07,  avg # of iterations =  3.8

     negative rho (up, down):  1.301E-03 0.000E+00

     total cpu time spent up to now is      208.5 secs

     total energy              =   -6417.94668926 Ry
     estimated scf accuracy    <       0.00186137 Ry

     iteration # 13     ecut=    60.00 Ry     beta= 0.70
     Davidson diagonalization with overlap

---- Real-time Memory Report at c_bands before calling an iterative solver
           877 MiB given to the printing process from OS
             0 MiB allocation reported by mallinfo(arena+hblkhd)
         26177 MiB available memory on the node where the printing process lives
------------------
     ethr =  5.61E-07,  avg # of iterations =  2.1

     negative rho (up, down):  1.318E-03 0.000E+00

     total cpu time spent up to now is      220.0 secs

     total energy              =   -6417.94681668 Ry
     estimated scf accuracy    <       0.00108844 Ry

     iteration # 14     ecut=    60.00 Ry     beta= 0.70
     Davidson diagonalization with overlap

---- Real-time Memory Report at c_bands before calling an iterative solver
           878 MiB given to the printing process from OS
             0 MiB allocation reported by mallinfo(arena+hblkhd)
         26160 MiB available memory on the node where the printing process lives
------------------
     ethr =  4.84E-07,  avg # of iterations =  2.0

     negative rho (up, down):  1.310E-03 0.000E+00

     total cpu time spent up to now is      231.6 secs

     total energy              =   -6417.94680219 Ry
     estimated scf accuracy    <       0.00085118 Ry

     iteration # 15     ecut=    60.00 Ry     beta= 0.70
     Davidson diagonalization with overlap

---- Real-time Memory Report at c_bands before calling an iterative solver
           878 MiB given to the printing process from OS
             0 MiB allocation reported by mallinfo(arena+hblkhd)
         26152 MiB available memory on the node where the printing process lives
------------------
     ethr =  3.78E-07,  avg # of iterations =  2.3

     negative rho (up, down):  1.309E-03 0.000E+00

     total cpu time spent up to now is      244.9 secs

     total energy              =   -6417.94674706 Ry
     estimated scf accuracy    <       0.00216001 Ry

     iteration # 16     ecut=    60.00 Ry     beta= 0.70
     Davidson diagonalization with overlap

---- Real-time Memory Report at c_bands before calling an iterative solver
           878 MiB given to the printing process from OS
             0 MiB allocation reported by mallinfo(arena+hblkhd)
         26155 MiB available memory on the node where the printing process lives
------------------
     ethr =  3.78E-07,  avg # of iterations =  1.8

     negative rho (up, down):  1.313E-03 0.000E+00

     total cpu time spent up to now is      255.8 secs

     total energy              =   -6417.94685790 Ry
     estimated scf accuracy    <       0.00061853 Ry

     iteration # 17     ecut=    60.00 Ry     beta= 0.70
     Davidson diagonalization with overlap

---- Real-time Memory Report at c_bands before calling an iterative solver
           878 MiB given to the printing process from OS
             0 MiB allocation reported by mallinfo(arena+hblkhd)
         26156 MiB available memory on the node where the printing process lives
------------------
     ethr =  2.75E-07,  avg # of iterations =  1.0

     negative rho (up, down):  1.315E-03 0.000E+00

     total cpu time spent up to now is      268.1 secs

     total energy              =   -6417.94689203 Ry
     estimated scf accuracy    <       0.00010838 Ry

     iteration # 18     ecut=    60.00 Ry     beta= 0.70
     Davidson diagonalization with overlap

---- Real-time Memory Report at c_bands before calling an iterative solver
           878 MiB given to the printing process from OS
             0 MiB allocation reported by mallinfo(arena+hblkhd)
         26157 MiB available memory on the node where the printing process lives
------------------
     ethr =  4.82E-08,  avg # of iterations =  3.4

     negative rho (up, down):  1.318E-03 0.000E+00

     total cpu time spent up to now is      280.3 secs

     total energy              =   -6417.94689130 Ry
     estimated scf accuracy    <       0.00024301 Ry

     iteration # 19     ecut=    60.00 Ry     beta= 0.70
     Davidson diagonalization with overlap

---- Real-time Memory Report at c_bands before calling an iterative solver
           879 MiB given to the printing process from OS
             0 MiB allocation reported by mallinfo(arena+hblkhd)
         26163 MiB available memory on the node where the printing process lives
------------------
     ethr =  4.82E-08,  avg # of iterations =  3.1

     negative rho (up, down):  1.320E-03 0.000E+00

     total cpu time spent up to now is      293.0 secs

     total energy              =   -6417.94689784 Ry
     estimated scf accuracy    <       0.00016337 Ry

     iteration # 20     ecut=    60.00 Ry     beta= 0.70
     Davidson diagonalization with overlap

---- Real-time Memory Report at c_bands before calling an iterative solver
           879 MiB given to the printing process from OS
             0 MiB allocation reported by mallinfo(arena+hblkhd)
         26150 MiB available memory on the node where the printing process lives
------------------
     ethr =  4.82E-08,  avg # of iterations =  1.6

     negative rho (up, down):  1.319E-03 0.000E+00

     total cpu time spent up to now is      304.9 secs

     total energy              =   -6417.94690943 Ry
     estimated scf accuracy    <       0.00003912 Ry

     iteration # 21     ecut=    60.00 Ry     beta= 0.70
     Davidson diagonalization with overlap

---- Real-time Memory Report at c_bands before calling an iterative solver
           879 MiB given to the printing process from OS
             0 MiB allocation reported by mallinfo(arena+hblkhd)
         26148 MiB available memory on the node where the printing process lives
------------------
     ethr =  1.74E-08,  avg # of iterations =  1.7

     negative rho (up, down):  1.321E-03 0.000E+00

     total cpu time spent up to now is      315.7 secs

     total energy              =   -6417.94691286 Ry
     estimated scf accuracy    <       0.00000301 Ry

     iteration # 22     ecut=    60.00 Ry     beta= 0.70
     Davidson diagonalization with overlap

---- Real-time Memory Report at c_bands before calling an iterative solver
           879 MiB given to the printing process from OS
             0 MiB allocation reported by mallinfo(arena+hblkhd)
         26152 MiB available memory on the node where the printing process lives
------------------
     ethr =  1.34E-09,  avg # of iterations =  5.7

     negative rho (up, down):  1.321E-03 0.000E+00

     total cpu time spent up to now is      331.7 secs

     total energy              =   -6417.94691343 Ry
     estimated scf accuracy    <       0.00000074 Ry

     iteration # 23     ecut=    60.00 Ry     beta= 0.70
     Davidson diagonalization with overlap

---- Real-time Memory Report at c_bands before calling an iterative solver
           879 MiB given to the printing process from OS
             0 MiB allocation reported by mallinfo(arena+hblkhd)
         26151 MiB available memory on the node where the printing process lives
------------------
     ethr =  3.30E-10,  avg # of iterations =  5.8

     negative rho (up, down):  1.322E-03 0.000E+00

     total cpu time spent up to now is      347.0 secs

     total energy              =   -6417.94691338 Ry
     estimated scf accuracy    <       0.00000254 Ry

     iteration # 24     ecut=    60.00 Ry     beta= 0.70
     Davidson diagonalization with overlap

---- Real-time Memory Report at c_bands before calling an iterative solver
           880 MiB given to the printing process from OS
             0 MiB allocation reported by mallinfo(arena+hblkhd)
         26144 MiB available memory on the node where the printing process lives
------------------
     ethr =  3.30E-10,  avg # of iterations =  2.2

     negative rho (up, down):  1.322E-03 0.000E+00

     total cpu time spent up to now is      358.9 secs

     total energy              =   -6417.94691347 Ry
     estimated scf accuracy    <       0.00000094 Ry

     iteration # 25     ecut=    60.00 Ry     beta= 0.70
     Davidson diagonalization with overlap

---- Real-time Memory Report at c_bands before calling an iterative solver
           880 MiB given to the printing process from OS
             0 MiB allocation reported by mallinfo(arena+hblkhd)
         26145 MiB available memory on the node where the printing process lives
------------------
     ethr =  3.30E-10,  avg # of iterations =  2.9

     negative rho (up, down):  1.322E-03 0.000E+00

     total cpu time spent up to now is      372.0 secs

     total energy              =   -6417.94691344 Ry
     estimated scf accuracy    <       0.00000240 Ry

     iteration # 26     ecut=    60.00 Ry     beta= 0.70
     Davidson diagonalization with overlap

---- Real-time Memory Report at c_bands before calling an iterative solver
           880 MiB given to the printing process from OS
             0 MiB allocation reported by mallinfo(arena+hblkhd)
         26147 MiB available memory on the node where the printing process lives
------------------
     ethr =  3.30E-10,  avg # of iterations =  1.6

     negative rho (up, down):  1.322E-03 0.000E+00

     total cpu time spent up to now is      384.8 secs

     total energy              =   -6417.94691357 Ry
     estimated scf accuracy    <       0.00000011 Ry

     iteration # 27     ecut=    60.00 Ry     beta= 0.70
     Davidson diagonalization with overlap

---- Real-time Memory Report at c_bands before calling an iterative solver
           880 MiB given to the printing process from OS
             0 MiB allocation reported by mallinfo(arena+hblkhd)
         26145 MiB available memory on the node where the printing process lives
------------------
     ethr =  4.83E-11,  avg # of iterations =  5.2

     negative rho (up, down):  1.322E-03 0.000E+00

     total cpu time spent up to now is      400.2 secs

     total energy              =   -6417.94691355 Ry
     estimated scf accuracy    <       0.00000069 Ry

     iteration # 28     ecut=    60.00 Ry     beta= 0.70
     Davidson diagonalization with overlap

---- Real-time Memory Report at c_bands before calling an iterative solver
           880 MiB given to the printing process from OS
             0 MiB allocation reported by mallinfo(arena+hblkhd)
         26147 MiB available memory on the node where the printing process lives
------------------
     ethr =  4.83E-11,  avg # of iterations =  3.0

     negative rho (up, down):  1.322E-03 0.000E+00

     total cpu time spent up to now is      413.4 secs

     total energy              =   -6417.94691359 Ry
     estimated scf accuracy    <       0.00000002 Ry

     iteration # 29     ecut=    60.00 Ry     beta= 0.70
     Davidson diagonalization with overlap

---- Real-time Memory Report at c_bands before calling an iterative solver
           880 MiB given to the printing process from OS
             0 MiB allocation reported by mallinfo(arena+hblkhd)
         26143 MiB available memory on the node where the printing process lives
------------------
     ethr =  1.07E-11,  avg # of iterations =  5.1

     negative rho (up, down):  1.322E-03 0.000E+00

     total cpu time spent up to now is      429.5 secs

     total energy              =   -6417.94691357 Ry
     estimated scf accuracy    <       0.00000048 Ry

     iteration # 30     ecut=    60.00 Ry     beta= 0.70
     Davidson diagonalization with overlap

---- Real-time Memory Report at c_bands before calling an iterative solver
           880 MiB given to the printing process from OS
             0 MiB allocation reported by mallinfo(arena+hblkhd)
         26137 MiB available memory on the node where the printing process lives
------------------
     ethr =  1.07E-11,  avg # of iterations =  5.0

     negative rho (up, down):  1.322E-03 0.000E+00

     total cpu time spent up to now is      445.3 secs

     total energy              =   -6417.94691360 Ry
     estimated scf accuracy    <       0.00000001 Ry

     iteration # 31     ecut=    60.00 Ry     beta= 0.70
     Davidson diagonalization with overlap

---- Real-time Memory Report at c_bands before calling an iterative solver
           880 MiB given to the printing process from OS
             0 MiB allocation reported by mallinfo(arena+hblkhd)
         26143 MiB available memory on the node where the printing process lives
------------------
     ethr =  5.68E-12,  avg # of iterations =  2.0

     negative rho (up, down):  1.322E-03 0.000E+00

     total cpu time spent up to now is      457.1 secs

     total energy              =   -6417.94691360 Ry
     estimated scf accuracy    <          1.3E-09 Ry

     iteration # 32     ecut=    60.00 Ry     beta= 0.70
     Davidson diagonalization with overlap

---- Real-time Memory Report at c_bands before calling an iterative solver
           880 MiB given to the printing process from OS
             0 MiB allocation reported by mallinfo(arena+hblkhd)
         26144 MiB available memory on the node where the printing process lives
------------------
     ethr =  5.90E-13,  avg # of iterations =  5.6

     negative rho (up, down):  1.322E-03 0.000E+00

     total cpu time spent up to now is      473.9 secs

     total energy              =   -6417.94691360 Ry
     estimated scf accuracy    <          3.2E-09 Ry

     iteration # 33     ecut=    60.00 Ry     beta= 0.70
     Davidson diagonalization with overlap

---- Real-time Memory Report at c_bands before calling an iterative solver
           880 MiB given to the printing process from OS
             0 MiB allocation reported by mallinfo(arena+hblkhd)
         26133 MiB available memory on the node where the printing process lives
------------------
     ethr =  5.90E-13,  avg # of iterations =  2.6

     negative rho (up, down):  1.322E-03 0.000E+00

     total cpu time spent up to now is      486.4 secs

     total energy              =   -6417.94691360 Ry
     estimated scf accuracy    <          4.6E-10 Ry

     iteration # 34     ecut=    60.00 Ry     beta= 0.70
     Davidson diagonalization with overlap

---- Real-time Memory Report at c_bands before calling an iterative solver
           881 MiB given to the printing process from OS
             0 MiB allocation reported by mallinfo(arena+hblkhd)
         26133 MiB available memory on the node where the printing process lives
------------------
     ethr =  2.04E-13,  avg # of iterations =  4.2

     negative rho (up, down):  1.322E-03 0.000E+00

     total cpu time spent up to now is      500.1 secs

     total energy              =   -6417.94691360 Ry
     estimated scf accuracy    <          1.1E-09 Ry

     iteration # 35     ecut=    60.00 Ry     beta= 0.70
     Davidson diagonalization with overlap

---- Real-time Memory Report at c_bands before calling an iterative solver
           881 MiB given to the printing process from OS
             0 MiB allocation reported by mallinfo(arena+hblkhd)
         26135 MiB available memory on the node where the printing process lives
------------------
     ethr =  2.04E-13,  avg # of iterations =  2.0

     negative rho (up, down):  1.322E-03 0.000E+00

     total cpu time spent up to now is      512.7 secs

     total energy              =   -6417.94691360 Ry
     estimated scf accuracy    <          1.6E-10 Ry

     iteration # 36     ecut=    60.00 Ry     beta= 0.70
     Davidson diagonalization with overlap

---- Real-time Memory Report at c_bands before calling an iterative solver
           881 MiB given to the printing process from OS
             0 MiB allocation reported by mallinfo(arena+hblkhd)
         26136 MiB available memory on the node where the printing process lives
------------------
     ethr =  1.00E-13,  avg # of iterations =  3.4

     negative rho (up, down):  1.322E-03 0.000E+00

     total cpu time spent up to now is      524.8 secs

     total energy              =   -6417.94691360 Ry
     estimated scf accuracy    <          2.8E-10 Ry

     iteration # 37     ecut=    60.00 Ry     beta= 0.70
     Davidson diagonalization with overlap

---- Real-time Memory Report at c_bands before calling an iterative solver
           881 MiB given to the printing process from OS
             0 MiB allocation reported by mallinfo(arena+hblkhd)
         26142 MiB available memory on the node where the printing process lives
------------------
     ethr =  1.00E-13,  avg # of iterations =  1.3

     negative rho (up, down):  1.322E-03 0.000E+00

     total cpu time spent up to now is      535.6 secs

     total energy              =   -6417.94691360 Ry
     estimated scf accuracy    <          3.1E-11 Ry

     iteration # 38     ecut=    60.00 Ry     beta= 0.70
     Davidson diagonalization with overlap

---- Real-time Memory Report at c_bands before calling an iterative solver
           881 MiB given to the printing process from OS
             0 MiB allocation reported by mallinfo(arena+hblkhd)
         26140 MiB available memory on the node where the printing process lives
------------------
     ethr =  1.00E-13,  avg # of iterations =  1.0

     negative rho (up, down):  1.322E-03 0.000E+00

     total cpu time spent up to now is      546.4 secs

     total energy              =   -6417.94691360 Ry
     estimated scf accuracy    <          2.5E-11 Ry

     iteration # 39     ecut=    60.00 Ry     beta= 0.70
     Davidson diagonalization with overlap

---- Real-time Memory Report at c_bands before calling an iterative solver
           881 MiB given to the printing process from OS
             0 MiB allocation reported by mallinfo(arena+hblkhd)
         26136 MiB available memory on the node where the printing process lives
------------------
     ethr =  1.00E-13,  avg # of iterations =  1.0

     negative rho (up, down):  1.322E-03 0.000E+00

     total cpu time spent up to now is      556.6 secs

     total energy              =   -6417.94691360 Ry
     estimated scf accuracy    <          2.2E-11 Ry

     iteration # 40     ecut=    60.00 Ry     beta= 0.70
     Davidson diagonalization with overlap

---- Real-time Memory Report at c_bands before calling an iterative solver
           881 MiB given to the printing process from OS
             0 MiB allocation reported by mallinfo(arena+hblkhd)
         26137 MiB available memory on the node where the printing process lives
------------------
     ethr =  1.00E-13,  avg # of iterations =  1.0

     negative rho (up, down):  1.322E-03 0.000E+00

     total cpu time spent up to now is      568.4 secs

     total energy              =   -6417.94691360 Ry
     estimated scf accuracy    <          4.7E-12 Ry

     iteration # 41     ecut=    60.00 Ry     beta= 0.70
     Davidson diagonalization with overlap

---- Real-time Memory Report at c_bands before calling an iterative solver
           881 MiB given to the printing process from OS
             0 MiB allocation reported by mallinfo(arena+hblkhd)
         26140 MiB available memory on the node where the printing process lives
------------------
     ethr =  1.00E-13,  avg # of iterations =  1.0

     negative rho (up, down):  1.322E-03 0.000E+00

     total cpu time spent up to now is      579.0 secs

     total energy              =   -6417.94691360 Ry
     estimated scf accuracy    <          7.5E-12 Ry

     iteration # 42     ecut=    60.00 Ry     beta= 0.70
     Davidson diagonalization with overlap

---- Real-time Memory Report at c_bands before calling an iterative solver
           881 MiB given to the printing process from OS
             0 MiB allocation reported by mallinfo(arena+hblkhd)
         26115 MiB available memory on the node where the printing process lives
------------------
     ethr =  1.00E-13,  avg # of iterations =  1.0

     negative rho (up, down):  1.322E-03 0.000E+00

     total cpu time spent up to now is      590.4 secs

     total energy              =   -6417.94691360 Ry
     estimated scf accuracy    <          3.5E-12 Ry

     iteration # 43     ecut=    60.00 Ry     beta= 0.70
     Davidson diagonalization with overlap

---- Real-time Memory Report at c_bands before calling an iterative solver
           881 MiB given to the printing process from OS
             0 MiB allocation reported by mallinfo(arena+hblkhd)
         26127 MiB available memory on the node where the printing process lives
------------------
     ethr =  1.00E-13,  avg # of iterations =  1.0

     negative rho (up, down):  1.322E-03 0.000E+00

     total cpu time spent up to now is      601.4 secs

     total energy              =   -6417.94691360 Ry
     estimated scf accuracy    <          1.2E-12 Ry

     iteration # 44     ecut=    60.00 Ry     beta= 0.70
     Davidson diagonalization with overlap

---- Real-time Memory Report at c_bands before calling an iterative solver
           881 MiB given to the printing process from OS
             0 MiB allocation reported by mallinfo(arena+hblkhd)
         26126 MiB available memory on the node where the printing process lives
------------------
     ethr =  1.00E-13,  avg # of iterations =  1.0

     negative rho (up, down):  1.322E-03 0.000E+00

     total cpu time spent up to now is      611.8 secs

     total energy              =   -6417.94691360 Ry
     estimated scf accuracy    <          5.2E-12 Ry

     iteration # 45     ecut=    60.00 Ry     beta= 0.70
     Davidson diagonalization with overlap

---- Real-time Memory Report at c_bands before calling an iterative solver
           881 MiB given to the printing process from OS
             0 MiB allocation reported by mallinfo(arena+hblkhd)
         26125 MiB available memory on the node where the printing process lives
------------------
     ethr =  1.00E-13,  avg # of iterations =  1.0

     negative rho (up, down):  1.322E-03 0.000E+00

     total cpu time spent up to now is      623.5 secs

     End of self-consistent calculation

          k = 0.0000 0.0000 0.0000 (109633 PWs)   bands (ev):

   -60.6196 -60.6104 -60.5686 -60.5297 -60.5088 -60.5008 -60.4823 -60.4646
   -60.4580 -36.7929 -36.7672 -36.7622 -36.7557 -36.7250 -36.7221 -36.6920
   -36.6827 -36.6720 -36.6585 -36.6314 -36.6284 -36.6132 -36.6066 -36.5967
   -36.5796 -36.5717 -36.5649 -36.5561 -36.5454 -36.5405 -36.5320 -36.5152
   -36.5064 -36.5000 -36.4624 -36.4433 -19.0513 -18.1273 -18.1134 -18.0945
   -18.0862 -18.0826 -18.0748 -18.0346 -17.7305 -17.6864 -17.6715 -17.6423
   -17.6059 -17.5728 -17.5178 -17.4872 -17.3889 -17.3298 -10.3307  -9.8976
    -9.8795  -9.8575  -9.8445  -9.8437  -9.8430  -9.8133  -9.8055  -9.4151
    -9.3830  -9.0274  -9.0233  -9.0186  -9.0015  -8.9903  -8.9882  -8.9620
    -8.9413  -8.9337  -8.9045  -8.8920  -8.8811  -8.8701  -8.8411  -8.5842
    -8.5606  -7.9713  -7.9399  -7.6602  -7.6347  -7.6061  -7.5397  -7.5261
    -7.4543  -7.3278  -7.3021  -7.1997  -7.1800  -6.9845  -6.9082  -6.8270
    -6.7135  -6.6798  -6.6621  -6.6608  -6.5633  -6.5415  -6.4635  -6.4133
    -6.4067  -6.3602  -6.3158  -6.3020  -5.8615  -5.8491  -5.8456  -5.8094
    -5.8007  -5.7721  -4.9614  -4.9280  -4.8791  -3.6523  -3.6057  -3.2500
    -3.1800  -3.0486  -3.0127  -3.0036  -2.9892  -2.9501  -2.9095  -2.8865
    -2.8411  -2.7735  -2.6916  -2.6375  -2.5821  -2.3743  -2.3716  -2.3458

     occupation numbers 
     1.0000   1.0000   1.0000   1.0000   1.0000   1.0000   1.0000   1.0000
     1.0000   1.0000   1.0000   1.0000   1.0000   1.0000   1.0000   1.0000
     1.0000   1.0000   1.0000   1.0000   1.0000   1.0000   1.0000   1.0000
     1.0000   1.0000   1.0000   1.0000   1.0000   1.0000   1.0000   1.0000
     1.0000   1.0000   1.0000   1.0000   1.0000   1.0000   1.0000   1.0000
     1.0000   1.0000   1.0000   1.0000   1.0000   1.0000   1.0000   1.0000
     1.0000   1.0000   1.0000   1.0000   1.0000   1.0000   1.0000   1.0000
     1.0000   1.0000   1.0000   1.0000   1.0000   1.0000   1.0000   1.0000
     1.0000   1.0000   1.0000   1.0000   1.0000   1.0000   1.0000   1.0000
     1.0000   1.0000   1.0000   1.0000   1.0000   1.0000   1.0000   1.0000
     1.0000   1.0000   1.0000   1.0000   1.0000   1.0000   1.0000   1.0000
     1.0000   1.0000   1.0000   1.0000   1.0000   1.0000   1.0000   1.0000
     1.0000   1.0000   1.0000   1.0000   1.0000   1.0000   1.0000   1.0000
     1.0000   1.0000   1.0000   1.0000   1.0099   1.0133   1.0145   1.0304
     1.0354   1.0542   0.0000   0.0000   0.0000   0.0000   0.0000   0.0000
     0.0000   0.0000   0.0000   0.0000   0.0000   0.0000   0.0000   0.0000
     0.0000   0.0000   0.0000   0.0000   0.0000   0.0000   0.0000   0.0000

          k = 0.0000 0.2887 0.0000 (109548 PWs)   bands (ev):

   -60.6195 -60.6105 -60.5686 -60.5297 -60.5088 -60.5008 -60.4822 -60.4646
   -60.4580 -36.7991 -36.7894 -36.7734 -36.7514 -36.7093 -36.6998 -36.6834
   -36.6820 -36.6719 -36.6596 -36.6315 -36.6308 -36.6161 -36.5984 -36.5966
   -36.5851 -36.5719 -36.5625 -36.5582 -36.5431 -36.5359 -36.5323 -36.5152
   -36.5126 -36.4953 -36.4726 -36.4467 -18.9745 -18.4395 -18.2383 -18.2035
   -18.0604 -17.9154 -17.8825 -17.8321 -17.7997 -17.7236 -17.6817 -17.6082
   -17.5708 -17.5625 -17.5400 -17.4860 -17.4131 -17.3547 -10.2833 -10.2293
   -10.0259 -10.0191  -9.7644  -9.7482  -9.7406  -9.7288  -9.6550  -9.6207
    -9.5970  -9.3802  -9.2212  -9.1826  -9.0151  -8.9837  -8.9051  -8.8801
    -8.8584  -8.8265  -8.7159  -8.6981  -8.6670  -8.6183  -8.3192  -8.2844
    -8.2515  -8.0426  -8.0021  -7.8787  -7.8347  -7.7470  -7.6956  -7.6596
    -7.5692  -7.2507  -7.2442  -7.1845  -7.1144  -7.0433  -6.8880  -6.8367
    -6.7933  -6.7600  -6.7300  -6.7097  -6.6594  -6.6437  -6.5635  -6.5383
    -6.4260  -6.4006  -6.3233  -6.2034  -5.7961  -5.7202  -5.6936  -5.6827
    -5.6547  -5.5646  -5.1120  -5.0802  -4.9641  -3.4587  -3.4095  -3.2797
    -3.2473  -3.1732  -3.0845  -3.0112  -2.9539  -2.9347  -2.8305  -2.7925
    -2.7664  -2.7553  -2.6711  -2.6378  -2.6268  -2.6040  -2.5417  -2.4306

     occupation numbers 
     1.0000   1.0000   1.0000   1.0000   1.0000   1.0000   1.0000   1.0000
     1.0000   1.0000   1.0000   1.0000   1.0000   1.0000   1.0000   1.0000
     1.0000   1.0000   1.0000   1.0000   1.0000   1.0000   1.0000   1.0000
     1.0000   1.0000   1.0000   1.0000   1.0000   1.0000   1.0000   1.0000
     1.0000   1.0000   1.0000   1.0000   1.0000   1.0000   1.0000   1.0000
     1.0000   1.0000   1.0000   1.0000   1.0000   1.0000   1.0000   1.0000
     1.0000   1.0000   1.0000   1.0000   1.0000   1.0000   1.0000   1.0000
     1.0000   1.0000   1.0000   1.0000   1.0000   1.0000   1.0000   1.0000
     1.0000   1.0000   1.0000   1.0000   1.0000   1.0000   1.0000   1.0000
     1.0000   1.0000   1.0000   1.0000   1.0000   1.0000   1.0000   1.0000
     1.0000   1.0000   1.0000   1.0000   1.0000   1.0000   1.0000   1.0000
     1.0000   1.0000   1.0000   1.0000   1.0000   1.0000   1.0000   1.0000
     1.0000   1.0000   1.0000   1.0000   1.0000   1.0000   1.0000   1.0000
     1.0000   1.0000   1.0000   1.0000   1.0383   1.0824   1.0785   1.0702
     1.0253   0.6452   0.0000   0.0000   0.0000   0.0000   0.0000   0.0000
     0.0000   0.0000   0.0000   0.0000   0.0000   0.0000   0.0000   0.0000
     0.0000   0.0000   0.0000   0.0000   0.0000   0.0000   0.0000   0.0000

          k = 0.0000-0.5774 0.0000 (109566 PWs)   bands (ev):

   -60.6194 -60.6106 -60.5686 -60.5297 -60.5088 -60.5009 -60.4822 -60.4647
   -60.4580 -36.8076 -36.7971 -36.7815 -36.7530 -36.7003 -36.6826 -36.6811
   -36.6795 -36.6608 -36.6565 -36.6312 -36.6303 -36.6255 -36.6053 -36.5965
   -36.5803 -36.5723 -36.5633 -36.5596 -36.5413 -36.5325 -36.5262 -36.5153
   -36.5093 -36.4984 -36.4869 -36.4499 -18.7598 -18.7545 -18.2868 -18.2511
   -17.9665 -17.9631 -17.7450 -17.7377 -17.7183 -17.7068 -17.7050 -17.6876
   -17.6507 -17.5590 -17.5004 -17.4581 -17.4172 -17.4075 -10.4542 -10.0458
   -10.0292  -9.9934  -9.9785  -9.9440  -9.9269  -9.5503  -9.5328  -9.5239
    -9.5045  -9.4976  -9.4770  -9.4596  -8.9948  -8.9353  -8.8498  -8.7972
    -8.7873  -8.7705  -8.7361  -8.4920  -8.3867  -8.1863  -8.1811  -8.1176
    -8.0688  -8.0333  -8.0031  -7.9116  -7.8772  -7.8179  -7.6894  -7.6166
    -7.5155  -7.4708  -7.4534  -7.4382  -7.1194  -7.0733  -7.0207  -6.9556
    -6.9546  -6.8790  -6.8684  -6.8034  -6.7319  -6.7277  -6.6958  -6.3809
    -6.3003  -6.2754  -6.2632  -6.1731  -5.7045  -5.6515  -5.5987  -5.5538
    -5.4779  -5.3398  -5.2589  -5.1958  -5.1669  -3.3611  -3.3152  -3.2677
    -3.1982  -3.1495  -3.0466  -3.0443  -2.9654  -2.9052  -2.8901  -2.8603
    -2.8207  -2.7529  -2.6999  -2.6785  -2.6453  -2.6006  -2.5227  -2.4825

     occupation numbers 
     1.0000   1.0000   1.0000   1.0000   1.0000   1.0000   1.0000   1.0000
     1.0000   1.0000   1.0000   1.0000   1.0000   1.0000   1.0000   1.0000
     1.0000   1.0000   1.0000   1.0000   1.0000   1.0000   1.0000   1.0000
     1.0000   1.0000   1.0000   1.0000   1.0000   1.0000   1.0000   1.0000
     1.0000   1.0000   1.0000   1.0000   1.0000   1.0000   1.0000   1.0000
     1.0000   1.0000   1.0000   1.0000   1.0000   1.0000   1.0000   1.0000
     1.0000   1.0000   1.0000   1.0000   1.0000   1.0000   1.0000   1.0000
     1.0000   1.0000   1.0000   1.0000   1.0000   1.0000   1.0000   1.0000
     1.0000   1.0000   1.0000   1.0000   1.0000   1.0000   1.0000   1.0000
     1.0000   1.0000   1.0000   1.0000   1.0000   1.0000   1.0000   1.0000
     1.0000   1.0000   1.0000   1.0000   1.0000   1.0000   1.0000   1.0000
     1.0000   1.0000   1.0000   1.0000   1.0000   1.0000   1.0000   1.0000
     1.0000   1.0000   1.0000   1.0000   1.0000   1.0000   1.0000   1.0000
     1.0000   1.0000   1.0000   1.0000   1.0826   1.0177   0.8237   0.5858
     0.2198   0.0086   0.0005   0.0000   0.0000   0.0000   0.0000   0.0000
     0.0000   0.0000   0.0000   0.0000   0.0000   0.0000   0.0000   0.0000
     0.0000   0.0000   0.0000   0.0000   0.0000   0.0000   0.0000   0.0000

          k = 0.2500 0.4330 0.0000 (109442 PWs)   bands (ev):

   -60.6194 -60.6105 -60.5686 -60.5297 -60.5088 -60.5008 -60.4822 -60.4646
   -60.4580 -36.8058 -36.7987 -36.7756 -36.7461 -36.7236 -36.6992 -36.6817
   -36.6702 -36.6596 -36.6541 -36.6307 -36.6239 -36.6137 -36.5978 -36.5940
   -36.5785 -36.5716 -36.5664 -36.5582 -36.5424 -36.5362 -36.5325 -36.5204
   -36.5152 -36.5016 -36.4780 -36.4484 -18.8276 -18.5758 -18.5403 -18.0003
   -17.9796 -17.9281 -17.8826 -17.8456 -17.7291 -17.7147 -17.6573 -17.6166
   -17.6008 -17.5866 -17.4981 -17.4571 -17.4492 -17.3856 -10.3384 -10.3109
   -10.1148 -10.0343  -9.7919  -9.7514  -9.7276  -9.7199  -9.6984  -9.6574
    -9.5485  -9.5142  -9.4628  -9.0434  -9.0276  -8.9002  -8.8685  -8.8487
    -8.8177  -8.7797  -8.7060  -8.6175  -8.5797  -8.1954  -8.0992  -8.0717
    -8.0255  -7.9848  -7.9715  -7.9357  -7.8966  -7.8823  -7.8525  -7.5250
    -7.4765  -7.3915  -7.3182  -7.2946  -7.2711  -7.0661  -7.0559  -6.9613
    -6.9551  -6.8659  -6.8571  -6.7851  -6.7277  -6.7156  -6.6788  -6.5483
    -6.4802  -6.2995  -6.1807  -6.1066  -5.6975  -5.6345  -5.5779  -5.5424
    -5.4373  -5.3848  -5.2972  -5.2061  -5.0996  -3.3826  -3.2969  -3.2234
    -3.1792  -3.1397  -3.0743  -3.0067  -2.9386  -2.9340  -2.8734  -2.8728
    -2.8399  -2.8019  -2.7745  -2.7295  -2.6747  -2.6073  -2.5602  -2.5183

     occupation numbers 
     1.0000   1.0000   1.0000   1.0000   1.0000   1.0000   1.0000   1.0000
     1.0000   1.0000   1.0000   1.0000   1.0000   1.0000   1.0000   1.0000
     1.0000   1.0000   1.0000   1.0000   1.0000   1.0000   1.0000   1.0000
     1.0000   1.0000   1.0000   1.0000   1.0000   1.0000   1.0000   1.0000
     1.0000   1.0000   1.0000   1.0000   1.0000   1.0000   1.0000   1.0000
     1.0000   1.0000   1.0000   1.0000   1.0000   1.0000   1.0000   1.0000
     1.0000   1.0000   1.0000   1.0000   1.0000   1.0000   1.0000   1.0000
     1.0000   1.0000   1.0000   1.0000   1.0000   1.0000   1.0000   1.0000
     1.0000   1.0000   1.0000   1.0000   1.0000   1.0000   1.0000   1.0000
     1.0000   1.0000   1.0000   1.0000   1.0000   1.0000   1.0000   1.0000
     1.0000   1.0000   1.0000   1.0000   1.0000   1.0000   1.0000   1.0000
     1.0000   1.0000   1.0000   1.0000   1.0000   1.0000   1.0000   1.0000
     1.0000   1.0000   1.0000   1.0000   1.0000   1.0000   1.0000   1.0000
     1.0000   1.0000   1.0000   1.0000   1.0804   0.9696   0.7178   0.5229
     0.1038   0.0307   0.0021   0.0001   0.0000   0.0000   0.0000   0.0000
     0.0000   0.0000   0.0000   0.0000   0.0000   0.0000   0.0000   0.0000
     0.0000   0.0000   0.0000   0.0000   0.0000   0.0000   0.0000   0.0000

          k =-0.2500 0.1443 0.0000 (109548 PWs)   bands (ev):

   -60.6195 -60.6105 -60.5686 -60.5297 -60.5089 -60.5008 -60.4822 -60.4646
   -60.4580 -36.7972 -36.7859 -36.7754 -36.7556 -36.7170 -36.6935 -36.6879
   -36.6820 -36.6648 -36.6596 -36.6308 -36.6285 -36.6173 -36.5989 -36.5965
   -36.5865 -36.5727 -36.5631 -36.5571 -36.5437 -36.5336 -36.5321 -36.5152
   -36.5137 -36.4990 -36.4680 -36.4484 -18.9747 -18.4380 -18.2327 -18.2124
   -18.0606 -17.9102 -17.8864 -17.8301 -17.7987 -17.7227 -17.6881 -17.6105
   -17.5703 -17.5532 -17.5409 -17.4884 -17.4123 -17.3564 -10.2870 -10.2240
   -10.0279 -10.0220  -9.7593  -9.7468  -9.7417  -9.7294  -9.6471  -9.6302
    -9.5954  -9.3796  -9.2171  -9.1871  -9.0144  -8.9846  -8.9169  -8.8738
    -8.8594  -8.8205  -8.7159  -8.6962  -8.6604  -8.6281  -8.3165  -8.2800
    -8.2594  -8.0424  -8.0071  -7.8714  -7.8294  -7.7652  -7.6826  -7.6544
    -7.5768  -7.2754  -7.2316  -7.1570  -7.1081  -7.0314  -6.8853  -6.8486
    -6.8188  -6.7591  -6.7259  -6.7121  -6.7022  -6.6512  -6.5649  -6.5021
    -6.4424  -6.3730  -6.3115  -6.2082  -5.7935  -5.7497  -5.7215  -5.6700
    -5.6345  -5.5442  -5.1266  -5.0696  -4.9603  -3.4651  -3.4087  -3.3051
    -3.1866  -3.1715  -3.0723  -3.0221  -2.9597  -2.9405  -2.8539  -2.7704
    -2.7536  -2.7422  -2.6872  -2.6577  -2.6200  -2.6020  -2.5624  -2.4348

     occupation numbers 
     1.0000   1.0000   1.0000   1.0000   1.0000   1.0000   1.0000   1.0000
     1.0000   1.0000   1.0000   1.0000   1.0000   1.0000   1.0000   1.0000
     1.0000   1.0000   1.0000   1.0000   1.0000   1.0000   1.0000   1.0000
     1.0000   1.0000   1.0000   1.0000   1.0000   1.0000   1.0000   1.0000
     1.0000   1.0000   1.0000   1.0000   1.0000   1.0000   1.0000   1.0000
     1.0000   1.0000   1.0000   1.0000   1.0000   1.0000   1.0000   1.0000
     1.0000   1.0000   1.0000   1.0000   1.0000   1.0000   1.0000   1.0000
     1.0000   1.0000   1.0000   1.0000   1.0000   1.0000   1.0000   1.0000
     1.0000   1.0000   1.0000   1.0000   1.0000   1.0000   1.0000   1.0000
     1.0000   1.0000   1.0000   1.0000   1.0000   1.0000   1.0000   1.0000
     1.0000   1.0000   1.0000   1.0000   1.0000   1.0000   1.0000   1.0000
     1.0000   1.0000   1.0000   1.0000   1.0000   1.0000   1.0000   1.0000
     1.0000   1.0000   1.0000   1.0000   1.0000   1.0000   1.0000   1.0000
     1.0000   1.0000   1.0000   1.0000   1.0399   1.0693   1.0822   1.0543
     0.9695   0.5328   0.0000   0.0000   0.0000   0.0000   0.0000   0.0000
     0.0000   0.0000   0.0000   0.0000   0.0000   0.0000   0.0000   0.0000
     0.0000   0.0000   0.0000   0.0000   0.0000   0.0000   0.0000   0.0000

          k = 0.2500 0.1443 0.0000 (109548 PWs)   bands (ev):

   -60.6195 -60.6104 -60.5686 -60.5297 -60.5088 -60.5008 -60.4823 -60.4646
   -60.4580 -36.8010 -36.7858 -36.7608 -36.7486 -36.7314 -36.7181 -36.6853
   -36.6825 -36.6584 -36.6571 -36.6313 -36.6187 -36.6049 -36.6023 -36.5978
   -36.5787 -36.5713 -36.5687 -36.5564 -36.5446 -36.5440 -36.5323 -36.5151
   -36.5127 -36.5036 -36.4681 -36.4449 -18.9746 -18.4398 -18.2337 -18.2075
   -18.0616 -17.9130 -17.8844 -17.8102 -17.8006 -17.7453 -17.7093 -17.5786
   -17.5706 -17.5401 -17.5374 -17.5106 -17.4143 -17.3548 -10.2896 -10.2192
   -10.0274 -10.0193  -9.7511  -9.7454  -9.7438  -9.7425  -9.6580  -9.6156
    -9.5962  -9.3791  -9.2061  -9.1999  -9.0150  -8.9936  -8.9069  -8.8815
    -8.8638  -8.8226  -8.7085  -8.6990  -8.6557  -8.6209  -8.3324  -8.2722
    -8.2618  -8.0552  -8.0185  -7.8403  -7.8149  -7.7883  -7.6743  -7.6433
    -7.5609  -7.2566  -7.2523  -7.1861  -7.0746  -7.0433  -6.8842  -6.8807
    -6.8241  -6.7775  -6.7269  -6.7050  -6.6898  -6.6550  -6.5646  -6.4907
    -6.4483  -6.3754  -6.2791  -6.2062  -5.8150  -5.7751  -5.7264  -5.6494
    -5.6228  -5.5470  -5.1097  -5.0931  -4.9591  -3.4754  -3.4118  -3.3166
    -3.1832  -3.0986  -3.0659  -3.0311  -2.9869  -2.8807  -2.8531  -2.8171
    -2.7711  -2.7468  -2.6871  -2.6393  -2.6050  -2.5676  -2.5431  -2.4567

     occupation numbers 
     1.0000   1.0000   1.0000   1.0000   1.0000   1.0000   1.0000   1.0000
     1.0000   1.0000   1.0000   1.0000   1.0000   1.0000   1.0000   1.0000
     1.0000   1.0000   1.0000   1.0000   1.0000   1.0000   1.0000   1.0000
     1.0000   1.0000   1.0000   1.0000   1.0000   1.0000   1.0000   1.0000
     1.0000   1.0000   1.0000   1.0000   1.0000   1.0000   1.0000   1.0000
     1.0000   1.0000   1.0000   1.0000   1.0000   1.0000   1.0000   1.0000
     1.0000   1.0000   1.0000   1.0000   1.0000   1.0000   1.0000   1.0000
     1.0000   1.0000   1.0000   1.0000   1.0000   1.0000   1.0000   1.0000
     1.0000   1.0000   1.0000   1.0000   1.0000   1.0000   1.0000   1.0000
     1.0000   1.0000   1.0000   1.0000   1.0000   1.0000   1.0000   1.0000
     1.0000   1.0000   1.0000   1.0000   1.0000   1.0000   1.0000   1.0000
     1.0000   1.0000   1.0000   1.0000   1.0000   1.0000   1.0000   1.0000
     1.0000   1.0000   1.0000   1.0000   1.0000   1.0000   1.0000   1.0000
     1.0000   1.0000   1.0000   1.0000   1.0274   1.0522   1.0808   1.0125
     0.9282   0.5477   0.0000   0.0000   0.0000   0.0000   0.0000   0.0000
     0.0000   0.0000   0.0000   0.0000   0.0000   0.0000   0.0000   0.0000
     0.0000   0.0000   0.0000   0.0000   0.0000   0.0000   0.0000   0.0000

          k = 0.5000-0.2887 0.0000 (109566 PWs)   bands (ev):

   -60.6194 -60.6106 -60.5686 -60.5297 -60.5090 -60.5007 -60.4822 -60.4647
   -60.4579 -36.8030 -36.7961 -36.7819 -36.7583 -36.7153 -36.6812 -36.6790
   -36.6668 -36.6608 -36.6601 -36.6302 -36.6237 -36.6224 -36.6098 -36.5964
   -36.5848 -36.5738 -36.5579 -36.5576 -36.5424 -36.5322 -36.5307 -36.5153
   -36.5124 -36.5011 -36.4787 -36.4524 -18.7745 -18.7387 -18.2807 -18.2597
   -17.9795 -17.9481 -17.7443 -17.7402 -17.7167 -17.7117 -17.6999 -17.6804
   -17.6625 -17.5614 -17.4815 -17.4614 -17.4221 -17.4118 -10.4561 -10.0388
   -10.0142 -10.0082  -9.9843  -9.9415  -9.9297  -9.5475  -9.5413  -9.5200
    -9.4964  -9.4947  -9.4794  -9.4645  -8.9878  -8.9408  -8.8553  -8.8120
    -8.7676  -8.7496  -8.7456  -8.4802  -8.4142  -8.2753  -8.1072  -8.1036
    -8.0715  -8.0367  -7.9639  -7.9058  -7.8827  -7.8321  -7.7368  -7.5837
    -7.5248  -7.4857  -7.4544  -7.4011  -7.1015  -7.0648  -7.0441  -6.9472
    -6.9420  -6.8903  -6.8401  -6.8337  -6.8117  -6.7195  -6.6744  -6.3772
    -6.3251  -6.2579  -6.2032  -6.1961  -5.7130  -5.6686  -5.6469  -5.5090
    -5.4256  -5.4109  -5.2209  -5.1992  -5.1569  -3.3881  -3.3311  -3.2695
    -3.1430  -3.1037  -3.0501  -3.0230  -2.9669  -2.8965  -2.8786  -2.8535
    -2.8236  -2.7851  -2.7509  -2.6752  -2.6677  -2.6470  -2.5909  -2.5152

     occupation numbers 
     1.0000   1.0000   1.0000   1.0000   1.0000   1.0000   1.0000   1.0000
     1.0000   1.0000   1.0000   1.0000   1.0000   1.0000   1.0000   1.0000
     1.0000   1.0000   1.0000   1.0000   1.0000   1.0000   1.0000   1.0000
     1.0000   1.0000   1.0000   1.0000   1.0000   1.0000   1.0000   1.0000
     1.0000   1.0000   1.0000   1.0000   1.0000   1.0000   1.0000   1.0000
     1.0000   1.0000   1.0000   1.0000   1.0000   1.0000   1.0000   1.0000
     1.0000   1.0000   1.0000   1.0000   1.0000   1.0000   1.0000   1.0000
     1.0000   1.0000   1.0000   1.0000   1.0000   1.0000   1.0000   1.0000
     1.0000   1.0000   1.0000   1.0000   1.0000   1.0000   1.0000   1.0000
     1.0000   1.0000   1.0000   1.0000   1.0000   1.0000   1.0000   1.0000
     1.0000   1.0000   1.0000   1.0000   1.0000   1.0000   1.0000   1.0000
     1.0000   1.0000   1.0000   1.0000   1.0000   1.0000   1.0000   1.0000
     1.0000   1.0000   1.0000   1.0000   1.0000   1.0000   1.0000   1.0000
     1.0000   1.0000   1.0000   1.0000   1.0833   1.0522   1.0062   0.3505
     0.0811   0.0583   0.0001   0.0000   0.0000   0.0000   0.0000   0.0000
     0.0000   0.0000   0.0000   0.0000   0.0000   0.0000   0.0000   0.0000
     0.0000   0.0000   0.0000   0.0000   0.0000   0.0000   0.0000   0.0000

          k =-0.5000-0.2887 0.0000 (109566 PWs)   bands (ev):

   -60.6195 -60.6104 -60.5686 -60.5298 -60.5089 -60.5007 -60.4823 -60.4645
   -60.4580 -36.8081 -36.7943 -36.7642 -36.7501 -36.7313 -36.7162 -36.6822
   -36.6748 -36.6584 -36.6471 -36.6312 -36.6138 -36.5989 -36.5947 -36.5871
   -36.5798 -36.5761 -36.5710 -36.5566 -36.5467 -36.5438 -36.5325 -36.5218
   -36.5151 -36.5075 -36.4749 -36.4460 -18.7680 -18.7466 -18.2818 -18.2553
   -17.9958 -17.9179 -17.7633 -17.7353 -17.7252 -17.7209 -17.6994 -17.6966
   -17.6496 -17.5104 -17.4944 -17.4599 -17.4581 -17.3968 -10.4542 -10.0314
   -10.0107 -10.0025  -9.9817  -9.9762  -9.9108  -9.5567  -9.5340  -9.5070
    -9.4984  -9.4956  -9.4880  -9.4615  -8.9880  -8.9687  -8.8648  -8.7993
    -8.7764  -8.7529  -8.7274  -8.4655  -8.4182  -8.2837  -8.1667  -8.0787
    -8.0628  -7.9980  -7.9479  -7.9053  -7.8852  -7.8238  -7.7829  -7.5350
    -7.5182  -7.4918  -7.4437  -7.4130  -7.1100  -7.0523  -6.9949  -6.9583
    -6.9440  -6.8980  -6.8968  -6.8708  -6.7889  -6.7726  -6.6302  -6.3926
    -6.3118  -6.2223  -6.2095  -6.1867  -5.7568  -5.6974  -5.6344  -5.5078
    -5.4191  -5.3581  -5.2606  -5.2070  -5.1469  -3.4685  -3.3289  -3.2278
    -3.1392  -3.0314  -2.9859  -2.9816  -2.9402  -2.8892  -2.8842  -2.8383
    -2.8125  -2.7926  -2.7793  -2.7527  -2.6717  -2.5900  -2.5597  -2.5564

     occupation numbers 
     1.0000   1.0000   1.0000   1.0000   1.0000   1.0000   1.0000   1.0000
     1.0000   1.0000   1.0000   1.0000   1.0000   1.0000   1.0000   1.0000
     1.0000   1.0000   1.0000   1.0000   1.0000   1.0000   1.0000   1.0000
     1.0000   1.0000   1.0000   1.0000   1.0000   1.0000   1.0000   1.0000
     1.0000   1.0000   1.0000   1.0000   1.0000   1.0000   1.0000   1.0000
     1.0000   1.0000   1.0000   1.0000   1.0000   1.0000   1.0000   1.0000
     1.0000   1.0000   1.0000   1.0000   1.0000   1.0000   1.0000   1.0000
     1.0000   1.0000   1.0000   1.0000   1.0000   1.0000   1.0000   1.0000
     1.0000   1.0000   1.0000   1.0000   1.0000   1.0000   1.0000   1.0000
     1.0000   1.0000   1.0000   1.0000   1.0000   1.0000   1.0000   1.0000
     1.0000   1.0000   1.0000   1.0000   1.0000   1.0000   1.0000   1.0000
     1.0000   1.0000   1.0000   1.0000   1.0000   1.0000   1.0000   1.0000
     1.0000   1.0000   1.0000   1.0000   1.0000   1.0000   1.0000   1.0000
     1.0000   1.0000   1.0000   1.0000   1.0647   1.0804   0.9691   0.3448
     0.0703   0.0149   0.0006   0.0001   0.0000   0.0000   0.0000   0.0000
     0.0000   0.0000   0.0000   0.0000   0.0000   0.0000   0.0000   0.0000
     0.0000   0.0000   0.0000   0.0000   0.0000   0.0000   0.0000   0.0000

          k =-0.2500 0.4330 0.0000 (109442 PWs)   bands (ev):

   -60.6194 -60.6106 -60.5685 -60.5296 -60.5089 -60.5008 -60.4822 -60.4646
   -60.4579 -36.8040 -36.7982 -36.7826 -36.7536 -36.7101 -36.6840 -36.6811
   -36.6668 -36.6608 -36.6597 -36.6302 -36.6279 -36.6248 -36.6060 -36.5965
   -36.5835 -36.5730 -36.5598 -36.5586 -36.5418 -36.5324 -36.5294 -36.5153
   -36.5107 -36.4994 -36.4826 -36.4511 -18.8279 -18.5658 -18.5502 -17.9953
   -17.9625 -17.9520 -17.9072 -17.8237 -17.7148 -17.6971 -17.6850 -17.6104
   -17.5979 -17.5655 -17.5542 -17.4445 -17.4227 -17.3982 -10.3438 -10.3081
   -10.1123 -10.0318  -9.8011  -9.7620  -9.7280  -9.7162  -9.6877  -9.6619
    -9.5479  -9.4981  -9.4704  -9.0823  -8.9930  -8.9090  -8.8566  -8.8367
    -8.8226  -8.7744  -8.7071  -8.6210  -8.5792  -8.1773  -8.1265  -8.0987
    -8.0066  -8.0039  -7.9700  -7.9294  -7.8809  -7.8775  -7.8346  -7.5331
    -7.5128  -7.4130  -7.2997  -7.2889  -7.2335  -7.0853  -7.0649  -7.0007
    -6.9565  -6.8439  -6.8215  -6.7782  -6.7170  -6.7099  -6.6833  -6.5566
    -6.4888  -6.3140  -6.1769  -6.1001  -5.6859  -5.6216  -5.5974  -5.5368
    -5.4586  -5.3762  -5.2765  -5.2142  -5.0996  -3.3336  -3.2718  -3.2566
    -3.1975  -3.1595  -3.1095  -3.0302  -2.9504  -2.9401  -2.8881  -2.8754
    -2.8523  -2.7887  -2.7666  -2.7189  -2.6621  -2.5920  -2.5567  -2.5025

     occupation numbers 
     1.0000   1.0000   1.0000   1.0000   1.0000   1.0000   1.0000   1.0000
     1.0000   1.0000   1.0000   1.0000   1.0000   1.0000   1.0000   1.0000
     1.0000   1.0000   1.0000   1.0000   1.0000   1.0000   1.0000   1.0000
     1.0000   1.0000   1.0000   1.0000   1.0000   1.0000   1.0000   1.0000
     1.0000   1.0000   1.0000   1.0000   1.0000   1.0000   1.0000   1.0000
     1.0000   1.0000   1.0000   1.0000   1.0000   1.0000   1.0000   1.0000
     1.0000   1.0000   1.0000   1.0000   1.0000   1.0000   1.0000   1.0000
     1.0000   1.0000   1.0000   1.0000   1.0000   1.0000   1.0000   1.0000
     1.0000   1.0000   1.0000   1.0000   1.0000   1.0000   1.0000   1.0000
     1.0000   1.0000   1.0000   1.0000   1.0000   1.0000   1.0000   1.0000
     1.0000   1.0000   1.0000   1.0000   1.0000   1.0000   1.0000   1.0000
     1.0000   1.0000   1.0000   1.0000   1.0000   1.0000   1.0000   1.0000
     1.0000   1.0000   1.0000   1.0000   1.0000   1.0000   1.0000   1.0000
     1.0000   1.0000   1.0000   1.0000   1.0731   0.9235   0.8176   0.4920
     0.1571   0.0245   0.0010   0.0001   0.0000   0.0000   0.0000   0.0000
     0.0000   0.0000   0.0000   0.0000   0.0000   0.0000   0.0000   0.0000
     0.0000   0.0000   0.0000   0.0000   0.0000   0.0000   0.0000   0.0000

          k = 0.5000-0.0000 0.0000 (109442 PWs)   bands (ev):

   -60.6194 -60.6105 -60.5686 -60.5297 -60.5089 -60.5007 -60.4822 -60.4646
   -60.4580 -36.8039 -36.7973 -36.7771 -36.7484 -36.7270 -36.6983 -36.6817
   -36.6716 -36.6595 -36.6504 -36.6307 -36.6208 -36.6114 -36.5977 -36.5964
   -36.5811 -36.5723 -36.5656 -36.5572 -36.5430 -36.5348 -36.5324 -36.5209
   -36.5152 -36.5060 -36.4733 -36.4500 -18.8284 -18.5595 -18.5559 -18.0013
   -17.9584 -17.9554 -17.8758 -17.8516 -17.7090 -17.6987 -17.6917 -17.6169
   -17.5963 -17.5911 -17.4841 -17.4611 -17.4522 -17.3877 -10.3280 -10.3242
   -10.1125 -10.0312  -9.7965  -9.7576  -9.7343  -9.7114  -9.6913  -9.6607
    -9.5262  -9.5217  -9.4754  -9.0367  -9.0323  -8.8960  -8.8861  -8.8375
    -8.8271  -8.7586  -8.7152  -8.6008  -8.5951  -8.1926  -8.1239  -8.0714
    -8.0211  -7.9934  -7.9663  -7.9388  -7.8812  -7.8687  -7.8607  -7.5251
    -7.4778  -7.3681  -7.3409  -7.2750  -7.2582  -7.1127  -7.0609  -6.9254
    -6.9231  -6.8957  -6.8824  -6.8070  -6.7292  -6.6970  -6.6837  -6.5411
    -6.4859  -6.2713  -6.1952  -6.1050  -5.7146  -5.6553  -5.5412  -5.5033
    -5.4799  -5.3843  -5.3120  -5.1923  -5.0933  -3.3925  -3.2809  -3.2727
    -3.1496  -3.0911  -3.0489  -2.9955  -2.9560  -2.9318  -2.8983  -2.8605
    -2.8594  -2.8143  -2.7746  -2.7437  -2.6766  -2.6305  -2.5357  -2.4879

     occupation numbers 
     1.0000   1.0000   1.0000   1.0000   1.0000   1.0000   1.0000   1.0000
     1.0000   1.0000   1.0000   1.0000   1.0000   1.0000   1.0000   1.0000
     1.0000   1.0000   1.0000   1.0000   1.0000   1.0000   1.0000   1.0000
     1.0000   1.0000   1.0000   1.0000   1.0000   1.0000   1.0000   1.0000
     1.0000   1.0000   1.0000   1.0000   1.0000   1.0000   1.0000   1.0000
     1.0000   1.0000   1.0000   1.0000   1.0000   1.0000   1.0000   1.0000
     1.0000   1.0000   1.0000   1.0000   1.0000   1.0000   1.0000   1.0000
     1.0000   1.0000   1.0000   1.0000   1.0000   1.0000   1.0000   1.0000
     1.0000   1.0000   1.0000   1.0000   1.0000   1.0000   1.0000   1.0000
     1.0000   1.0000   1.0000   1.0000   1.0000   1.0000   1.0000   1.0000
     1.0000   1.0000   1.0000   1.0000   1.0000   1.0000   1.0000   1.0000
     1.0000   1.0000   1.0000   1.0000   1.0000   1.0000   1.0000   1.0000
     1.0000   1.0000   1.0000   1.0000   1.0000   1.0000   1.0000   1.0000
     1.0000   1.0000   1.0000   1.0000   1.0832   1.0266   0.5159   0.3238
     0.2273   0.0304   0.0036   0.0000   0.0000   0.0000   0.0000   0.0000
     0.0000   0.0000   0.0000   0.0000   0.0000   0.0000   0.0000   0.0000
     0.0000   0.0000   0.0000   0.0000   0.0000   0.0000   0.0000   0.0000

     the Fermi energy is    -5.5193 ev

!    total energy              =   -6417.94691360 Ry
     total all-electron energy =   -156244.815100 Ry
     estimated scf accuracy    <          4.2E-13 Ry
     smearing contrib. (-TS)   =       0.00233930 Ry
     internal energy E=F+TS    =   -6417.94925290 Ry

     The total energy is F=E-TS. E is the sum of the following terms:
     one-electron contribution =  -14653.39078083 Ry
     hartree contribution      =    7312.19498476 Ry
     xc contribution           =    -282.70600252 Ry
     ewald contribution        =    6224.97904009 Ry
     one-center paw contrib.   =   -5019.02649439 Ry
      -> PAW hartree energy AE =      68.33374843 Ry
      -> PAW hartree energy PS =     -67.89830640 Ry
      -> PAW xc energy AE      =    -235.86193577 Ry
      -> PAW xc energy PS      =      16.64047906 Ry
      -> total E_H with PAW    =    7312.63042679 Ry
      -> total E_XC with PAW   =    -501.92745923 Ry

     convergence has been achieved in  45 iterations

     negative rho (up, down):  1.322E-03 0.000E+00

     Forces acting on atoms (cartesian axes, Ry/au):

     atom    1 type  1   force =     0.01489122    0.01042276    0.00000000
     atom    2 type  2   force =    -0.00200415    0.00461189    0.00749844
     atom    3 type  2   force =    -0.00200415    0.00461189   -0.00749844
     atom    4 type  1   force =     0.00102695    0.00633625    0.00000000
     atom    5 type  2   force =    -0.00334010   -0.00193126    0.00137079
     atom    6 type  2   force =    -0.00334010   -0.00193126   -0.00137079
     atom    7 type  1   force =    -0.00831719   -0.01023677    0.00000000
     atom    8 type  2   force =     0.00227546   -0.00435480   -0.00515271
     atom    9 type  2   force =     0.00227546   -0.00435480    0.00515271
     atom   10 type  1   force =    -0.00604868   -0.02061277    0.00000000
     atom   11 type  2   force =     0.00424925   -0.00607368   -0.01164617
     atom   12 type  2   force =     0.00424925   -0.00607368    0.01164617
     atom   13 type  1   force =     0.00120065    0.00087274    0.00000000
     atom   14 type  2   force =     0.00015921    0.00635763    0.00577399
     atom   15 type  2   force =     0.00015921    0.00635763   -0.00577399
     atom   16 type  1   force =     0.00975953    0.01721787    0.00000000
     atom   17 type  2   force =    -0.00307733    0.00308556    0.00968604
     atom   18 type  2   force =    -0.00307733    0.00308556   -0.00968604
     atom   19 type  1   force =    -0.00717821    0.01293982    0.00000000
     atom   20 type  2   force =    -0.00192059    0.00255895    0.00655118
     atom   21 type  2   force =    -0.00192059    0.00255895   -0.00655118
     atom   22 type  1   force =    -0.00089190   -0.00832474    0.00000000
     atom   23 type  2   force =     0.00280178   -0.00377463   -0.00629786
     atom   24 type  2   force =     0.00280178   -0.00377463    0.00629786
     atom   25 type  1   force =    -0.00585911   -0.01357953    0.00000000
     atom   26 type  2   force =     0.00156482    0.00200253   -0.00244928
     atom   27 type  2   force =     0.00156482    0.00200253    0.00244928
     The non-local contrib.  to forces
     atom    1 type  1   force =    -0.02202603   -0.01347584    0.00000000
     atom    2 type  2   force =    -0.00385261   -0.00473092   -0.26741850
     atom    3 type  2   force =    -0.00385261   -0.00473092    0.26741850
     atom    4 type  1   force =    -0.01122816   -0.00760027    0.00000000
     atom    5 type  2   force =    -0.00555894   -0.00270148   -0.27218571
     atom    6 type  2   force =    -0.00555894   -0.00270148    0.27218571
     atom    7 type  1   force =    -0.01345513   -0.01027443    0.00000000
     atom    8 type  2   force =     0.00093854    0.00343749   -0.27719010
     atom    9 type  2   force =     0.00093854    0.00343749    0.27719010
     atom   10 type  1   force =     0.01037537   -0.00286529    0.00000000
     atom   11 type  2   force =    -0.00421265    0.00478850   -0.28459077
     atom   12 type  2   force =    -0.00421265    0.00478850    0.28459077
     atom   13 type  1   force =    -0.00478302    0.00916956    0.00000000
     atom   14 type  2   force =     0.00014641   -0.00093979   -0.27362001
     atom   15 type  2   force =     0.00014641   -0.00093979    0.27362001
     atom   16 type  1   force =    -0.00452822   -0.00714948    0.00000000
     atom   17 type  2   force =    -0.00680756   -0.00911334   -0.27378741
     atom   18 type  2   force =    -0.00680756   -0.00911334    0.27378741
     atom   19 type  1   force =     0.00687195    0.01348510    0.00000000
     atom   20 type  2   force =     0.00983594    0.00357082   -0.27828868
     atom   21 type  2   force =     0.00983594    0.00357082    0.27828868
     atom   22 type  1   force =     0.01141604   -0.01023018    0.00000000
     atom   23 type  2   force =     0.00721737    0.00621151   -0.28307892
     atom   24 type  2   force =     0.00721737    0.00621151    0.28307892
     atom   25 type  1   force =     0.01589350    0.01767698    0.00000000
     atom   26 type  2   force =     0.00828302    0.00534180   -0.27784489
     atom   27 type  2   force =     0.00828302    0.00534180    0.27784489
     The ionic contribution  to forces
     atom    1 type  1   force =     1.50756748    0.99788912    0.00000000
     atom    2 type  2   force =     0.15629993    0.46946691   35.50209549
     atom    3 type  2   force =     0.15629993    0.46946691  -35.50209549
     atom    4 type  1   force =     1.41357067    0.37202920   -0.00000000
     atom    5 type  2   force =     0.32153449    0.04945636   35.86671841
     atom    6 type  2   force =     0.32153449    0.04945636  -35.86671841
     atom    7 type  1   force =     0.38540870    0.55102539    0.00000000
     atom    8 type  2   force =     0.24270344   -0.08089391   36.85984555
     atom    9 type  2   force =     0.24270344   -0.08089391  -36.85984555
     atom   10 type  1   force =    -0.82019603   -0.18424781   -0.00000000
     atom   11 type  2   force =     0.05450932   -0.38896618   36.54219195
     atom   12 type  2   force =     0.05450932   -0.38896618  -36.54219195
     atom   13 type  1   force =     0.03322510   -0.12753306    0.00000000
     atom   14 type  2   force =    -0.26488084    0.19242186   35.91711614
     atom   15 type  2   force =    -0.26488084    0.19242186  -35.91711614
     atom   16 type  1   force =     1.03922812    0.37753034    0.00000000
     atom   17 type  2   force =    -0.03440157    0.08938178   35.35076202
     atom   18 type  2   force =    -0.03440157    0.08938178  -35.35076202
     atom   19 type  1   force =    -0.65549330   -0.81347885    0.00000000
     atom   20 type  2   force =    -0.24275563   -0.07684860   37.13439878
     atom   21 type  2   force =    -0.24275563   -0.07684860  -37.13439878
     atom   22 type  1   force =    -1.40310808   -0.25787613    0.00000000
     atom   23 type  2   force =    -0.07955044   -0.23477964   37.39776368
     atom   24 type  2   force =    -0.07955044   -0.23477964  -37.39776368
     atom   25 type  1   force =    -1.34589851   -0.95110990    0.00000000
     atom   26 type  2   force =    -0.23061079   -0.00135274   36.97257415
     atom   27 type  2   force =    -0.23061079   -0.00135274  -36.97257415
     The local contribution  to forces
     atom    1 type  1   force =    -1.47248305   -0.97523395    0.00000000
     atom    2 type  2   force =    -0.15447852   -0.45949680  -35.22871308
     atom    3 type  2   force =    -0.15447852   -0.45949680   35.22871308
     atom    4 type  1   force =    -1.40244324   -0.35891823    0.00000000
     atom    5 type  2   force =    -0.32026365   -0.04915121  -35.59484756
     atom    6 type  2   force =    -0.32026365   -0.04915121   35.59484756
     atom    7 type  1   force =    -0.38093167   -0.55122634    0.00000000
     atom    8 type  2   force =    -0.24217655    0.07215289  -36.58905306
     atom    9 type  2   force =    -0.24217655    0.07215289   36.58905306
     atom   10 type  1   force =     0.80481590    0.16666936   -0.00000000
     atom   11 type  2   force =    -0.04575331    0.37750635  -36.27192980
     atom   12 type  2   force =    -0.04575331    0.37750635   36.27192980
     atom   13 type  1   force =    -0.02774437    0.11983744    0.00000000
     atom   14 type  2   force =     0.26569728   -0.18402395  -35.63906750
     atom   15 type  2   force =     0.26569728   -0.18402395   35.63906750
     atom   16 type  1   force =    -1.02584953   -0.35409869    0.00000000
     atom   17 type  2   force =     0.03799998   -0.07682958  -35.06935820
     atom   18 type  2   force =     0.03799998   -0.07682958   35.06935820
     atom   19 type  1   force =     0.64193172    0.81388878   -0.00000000
     atom   20 type  2   force =     0.23071054    0.07619842  -36.84993794
     atom   21 type  2   force =     0.23071054    0.07619842   36.84993794
     atom   22 type  1   force =     1.39212792    0.25956916   -0.00000000
     atom   23 type  2   force =     0.07529004    0.22442801  -37.12251136
     atom   24 type  2   force =     0.07529004    0.22442801   37.12251136
[...]
     atom   16 type  1   force =     0.00000026    0.00000004    0.00000000
     atom   17 type  2   force =     0.00000005    0.00000001    0.00000009
     atom   18 type  2   force =     0.00000005    0.00000001   -0.00000009
     atom   19 type  1   force =     0.00000014    0.00000017    0.00000000
     atom   20 type  2   force =    -0.00000015    0.00000011   -0.00000005
     atom   21 type  2   force =    -0.00000015    0.00000011    0.00000005
     atom   22 type  1   force =     0.00000015   -0.00000027    0.00000000
     atom   23 type  2   force =     0.00000001   -0.00000012   -0.00000013
     atom   24 type  2   force =     0.00000001   -0.00000012    0.00000013
     atom   25 type  1   force =    -0.00000014    0.00000016    0.00000000
     atom   26 type  2   force =    -0.00000005   -0.00000009    0.00000008
     atom   27 type  2   force =    -0.00000005   -0.00000009   -0.00000008

     Total force =     0.004201     Total SCF correction =     0.000001
     Energy error            =      2.8E-05 Ry
     Gradient error          =      1.4E-03 Ry/Bohr

     number of scf cycles    =  26
     number of bfgs steps    =  25

     energy             old  =   -6417.9555629179 Ry
     energy             new  =   -6417.9555907891 Ry

     CASE: energy            _new < energy            _old

     new trust radius        =       0.0135121352 bohr
     new conv_thr            =            2.8E-13 Ry


ATOMIC_POSITIONS (angstrom)
Nb              -0.0243910105        1.9481517549        0.0000000000
Se               1.7378825194        0.9939544330        1.6708156342
Se               1.7378825194        0.9939544330       -1.6708156342
Nb              -1.7995367620        5.0705001242        0.0000000000
Se              -0.0088194271        4.0046704809        1.6361735628
Se              -0.0088194271        4.0046704809       -1.6361735628
Nb              -3.4704755828        7.9730222525        0.0000000000
Se              -1.7310481602        7.0282475785        1.7036379147
Se              -1.7310481602        7.0282475785       -1.7036379147
Nb               3.4999214908        1.9491889103        0.0000000000
Se               5.2218190099        0.9977329029        1.7029830062
Se               5.2218190099        0.9977329029       -1.7029830062
Nb               1.7426089198        5.0676536079        0.0000000000
Se               3.4819832951        4.0039784204        1.6374316389
Se               3.4819832951        4.0039784204       -1.6374316389
Nb              -0.0264368507        8.0254099281        0.0000000000
Se               1.7368412981        7.0425387813        1.6857894907
Se               1.7368412981        7.0425387813       -1.6857894907
Nb               6.9417966069        1.9906240209        0.0000000000
Se               8.6665598989        0.9981109370        1.6964417116
Se               8.6665598989        0.9981109370       -1.6964417116
Nb               5.2670613954        5.0700178518        0.0000000000
Se               6.9469413880        3.9943723125        1.6875654325
Se               6.9469413880        3.9943723125       -1.6875654325
Nb               3.4954263776        8.0219506570        0.0000000000
Se               5.2046086721        7.0261630522        1.7041726892
Se               5.2046086721        7.0261630522       -1.7041726892



     Writing config-only to output data dir ./out/nbse2_3x3.save/ :
     XML data file
     NEW-OLD atomic charge density approx. for the potential

     negative rho (up, down):  1.326E-03 0.000E+00

     total cpu time spent up to now is    10410.7 secs

     Self-consistent Calculation

     iteration #  1     ecut=    60.00 Ry     beta= 0.70
     Davidson diagonalization with overlap

---- Real-time Memory Report at c_bands before calling an iterative solver
           935 MiB given to the printing process from OS
             0 MiB allocation reported by mallinfo(arena+hblkhd)
         25888 MiB available memory on the node where the printing process lives
------------------
     ethr =  1.00E-06,  avg # of iterations =  3.1

     negative rho (up, down):  1.326E-03 0.000E+00

     total cpu time spent up to now is    10427.8 secs

     total energy              =   -6417.95539963 Ry
     estimated scf accuracy    <       0.00032124 Ry

     iteration #  2     ecut=    60.00 Ry     beta= 0.70
     Davidson diagonalization with overlap

---- Real-time Memory Report at c_bands before calling an iterative solver
           935 MiB given to the printing process from OS
             0 MiB allocation reported by mallinfo(arena+hblkhd)
         25877 MiB available memory on the node where the printing process lives
------------------
     ethr =  1.43E-07,  avg # of iterations =  9.3

     negative rho (up, down):  1.326E-03 0.000E+00

     total cpu time spent up to now is    10448.8 secs

     total energy              =   -6417.95419650 Ry
     estimated scf accuracy    <       0.02210816 Ry

     iteration #  3     ecut=    60.00 Ry     beta= 0.70
     Davidson diagonalization with overlap

---- Real-time Memory Report at c_bands before calling an iterative solver
           935 MiB given to the printing process from OS
             0 MiB allocation reported by mallinfo(arena+hblkhd)
         25868 MiB available memory on the node where the printing process lives
------------------
     ethr =  1.43E-07,  avg # of iterations = 10.2

     negative rho (up, down):  1.326E-03 0.000E+00

     total cpu time spent up to now is    10469.1 secs

     total energy              =   -6417.95559651 Ry
     estimated scf accuracy    <       0.00012693 Ry

     iteration #  4     ecut=    60.00 Ry     beta= 0.70
     Davidson diagonalization with overlap

---- Real-time Memory Report at c_bands before calling an iterative solver
           935 MiB given to the printing process from OS
             0 MiB allocation reported by mallinfo(arena+hblkhd)
         25874 MiB available memory on the node where the printing process lives
------------------
     ethr =  5.64E-08,  avg # of iterations =  4.3

     negative rho (up, down):  1.326E-03 0.000E+00

     total cpu time spent up to now is    10483.2 secs

     total energy              =   -6417.95558795 Ry
     estimated scf accuracy    <       0.00049810 Ry

     iteration #  5     ecut=    60.00 Ry     beta= 0.70
     Davidson diagonalization with overlap

---- Real-time Memory Report at c_bands before calling an iterative solver
           935 MiB given to the printing process from OS
             0 MiB allocation reported by mallinfo(arena+hblkhd)
         25875 MiB available memory on the node where the printing process lives
------------------
     ethr =  5.64E-08,  avg # of iterations =  2.0

     negative rho (up, down):  1.326E-03 0.000E+00

     total cpu time spent up to now is    10494.3 secs

     total energy              =   -6417.95561989 Ry
     estimated scf accuracy    <       0.00001366 Ry

     iteration #  6     ecut=    60.00 Ry     beta= 0.70
     Davidson diagonalization with overlap

---- Real-time Memory Report at c_bands before calling an iterative solver
           935 MiB given to the printing process from OS
             0 MiB allocation reported by mallinfo(arena+hblkhd)
         25869 MiB available memory on the node where the printing process lives
------------------
     ethr =  6.07E-09,  avg # of iterations =  5.3

     negative rho (up, down):  1.326E-03 0.000E+00

     total cpu time spent up to now is    10509.4 secs

     total energy              =   -6417.95561992 Ry
     estimated scf accuracy    <       0.00004909 Ry

     iteration #  7     ecut=    60.00 Ry     beta= 0.70
     Davidson diagonalization with overlap

---- Real-time Memory Report at c_bands before calling an iterative solver
           935 MiB given to the printing process from OS
             0 MiB allocation reported by mallinfo(arena+hblkhd)
         25873 MiB available memory on the node where the printing process lives
------------------
     ethr =  6.07E-09,  avg # of iterations =  2.0

     negative rho (up, down):  1.326E-03 0.000E+00

     total cpu time spent up to now is    10522.4 secs

     total energy              =   -6417.95562321 Ry
     estimated scf accuracy    <       0.00000223 Ry

     iteration #  8     ecut=    60.00 Ry     beta= 0.70
     Davidson diagonalization with overlap

---- Real-time Memory Report at c_bands before calling an iterative solver
           935 MiB given to the printing process from OS
             0 MiB allocation reported by mallinfo(arena+hblkhd)
         25871 MiB available memory on the node where the printing process lives
------------------
     ethr =  9.92E-10,  avg # of iterations =  4.9

     negative rho (up, down):  1.326E-03 0.000E+00

     total cpu time spent up to now is    10537.6 secs

     total energy              =   -6417.95562328 Ry
     estimated scf accuracy    <       0.00000576 Ry

     iteration #  9     ecut=    60.00 Ry     beta= 0.70
     Davidson diagonalization with overlap

---- Real-time Memory Report at c_bands before calling an iterative solver
           935 MiB given to the printing process from OS
             0 MiB allocation reported by mallinfo(arena+hblkhd)
         25872 MiB available memory on the node where the printing process lives
------------------
     ethr =  9.92E-10,  avg # of iterations =  2.1

     negative rho (up, down):  1.326E-03 0.000E+00

     total cpu time spent up to now is    10549.8 secs

     total energy              =   -6417.95562366 Ry
     estimated scf accuracy    <       0.00000157 Ry

     iteration # 10     ecut=    60.00 Ry     beta= 0.70
     Davidson diagonalization with overlap

---- Real-time Memory Report at c_bands before calling an iterative solver
           935 MiB given to the printing process from OS
             0 MiB allocation reported by mallinfo(arena+hblkhd)
         25867 MiB available memory on the node where the printing process lives
------------------
     ethr =  6.98E-10,  avg # of iterations =  1.8

     negative rho (up, down):  1.326E-03 0.000E+00

     total cpu time spent up to now is    10561.4 secs

     total energy              =   -6417.95562378 Ry
     estimated scf accuracy    <       0.00000023 Ry

     iteration # 11     ecut=    60.00 Ry     beta= 0.70
     Davidson diagonalization with overlap

---- Real-time Memory Report at c_bands before calling an iterative solver
           935 MiB given to the printing process from OS
             0 MiB allocation reported by mallinfo(arena+hblkhd)
         25868 MiB available memory on the node where the printing process lives
------------------
     ethr =  1.02E-10,  avg # of iterations =  4.9

     negative rho (up, down):  1.326E-03 0.000E+00

     total cpu time spent up to now is    10575.8 secs

     total energy              =   -6417.95562379 Ry
     estimated scf accuracy    <       0.00000078 Ry

     iteration # 12     ecut=    60.00 Ry     beta= 0.70
     Davidson diagonalization with overlap

---- Real-time Memory Report at c_bands before calling an iterative solver
           935 MiB given to the printing process from OS
             0 MiB allocation reported by mallinfo(arena+hblkhd)
         25866 MiB available memory on the node where the printing process lives
------------------
     ethr =  1.02E-10,  avg # of iterations =  2.1

     negative rho (up, down):  1.326E-03 0.000E+00

     total cpu time spent up to now is    10588.6 secs

     total energy              =   -6417.95562383 Ry
     estimated scf accuracy    <       0.00000007 Ry

     iteration # 13     ecut=    60.00 Ry     beta= 0.70
     Davidson diagonalization with overlap

---- Real-time Memory Report at c_bands before calling an iterative solver
           935 MiB given to the printing process from OS
             0 MiB allocation reported by mallinfo(arena+hblkhd)
         25872 MiB available memory on the node where the printing process lives
------------------
     ethr =  3.16E-11,  avg # of iterations =  3.7

     negative rho (up, down):  1.326E-03 0.000E+00

     total cpu time spent up to now is    10601.0 secs

     total energy              =   -6417.95562384 Ry
     estimated scf accuracy    <       0.00000001 Ry

     iteration # 14     ecut=    60.00 Ry     beta= 0.70
     Davidson diagonalization with overlap

---- Real-time Memory Report at c_bands before calling an iterative solver
           935 MiB given to the printing process from OS
             0 MiB allocation reported by mallinfo(arena+hblkhd)
         25875 MiB available memory on the node where the printing process lives
------------------
     ethr =  6.11E-12,  avg # of iterations =  4.9

     negative rho (up, down):  1.326E-03 0.000E+00

     total cpu time spent up to now is    10615.3 secs

     total energy              =   -6417.95562384 Ry
     estimated scf accuracy    <       0.00000002 Ry

     iteration # 15     ecut=    60.00 Ry     beta= 0.70
     Davidson diagonalization with overlap

---- Real-time Memory Report at c_bands before calling an iterative solver
           935 MiB given to the printing process from OS
             0 MiB allocation reported by mallinfo(arena+hblkhd)
         25867 MiB available memory on the node where the printing process lives
------------------
     ethr =  6.11E-12,  avg # of iterations =  2.9

     negative rho (up, down):  1.326E-03 0.000E+00

     total cpu time spent up to now is    10627.5 secs

     total energy              =   -6417.95562385 Ry
     estimated scf accuracy    <       0.00000002 Ry

     iteration # 16     ecut=    60.00 Ry     beta= 0.70
     Davidson diagonalization with overlap

---- Real-time Memory Report at c_bands before calling an iterative solver
           935 MiB given to the printing process from OS
             0 MiB allocation reported by mallinfo(arena+hblkhd)
         25866 MiB available memory on the node where the printing process lives
------------------
     ethr =  6.11E-12,  avg # of iterations =  1.1

     negative rho (up, down):  1.326E-03 0.000E+00

     total cpu time spent up to now is    10637.9 secs

     total energy              =   -6417.95562385 Ry
     estimated scf accuracy    <          8.1E-10 Ry

     iteration # 17     ecut=    60.00 Ry     beta= 0.70
     Davidson diagonalization with overlap

---- Real-time Memory Report at c_bands before calling an iterative solver
           935 MiB given to the printing process from OS
             0 MiB allocation reported by mallinfo(arena+hblkhd)
         25871 MiB available memory on the node where the printing process lives
------------------
     ethr =  3.59E-13,  avg # of iterations =  5.7

     negative rho (up, down):  1.326E-03 0.000E+00

     total cpu time spent up to now is    10656.1 secs

     total energy              =   -6417.95562385 Ry
     estimated scf accuracy    <       0.00000001 Ry

     iteration # 18     ecut=    60.00 Ry     beta= 0.70
     Davidson diagonalization with overlap

---- Real-time Memory Report at c_bands before calling an iterative solver
           935 MiB given to the printing process from OS
             0 MiB allocation reported by mallinfo(arena+hblkhd)
         25866 MiB available memory on the node where the printing process lives
------------------
     ethr =  3.59E-13,  avg # of iterations =  4.8

     negative rho (up, down):  1.326E-03 0.000E+00

     total cpu time spent up to now is    10670.8 secs

     total energy              =   -6417.95562385 Ry
     estimated scf accuracy    <          1.3E-10 Ry

     iteration # 19     ecut=    60.00 Ry     beta= 0.70
     Davidson diagonalization with overlap

---- Real-time Memory Report at c_bands before calling an iterative solver
           935 MiB given to the printing process from OS
             0 MiB allocation reported by mallinfo(arena+hblkhd)
         25864 MiB available memory on the node where the printing process lives
------------------
     ethr =  1.00E-13,  avg # of iterations =  5.0

     negative rho (up, down):  1.326E-03 0.000E+00

     total cpu time spent up to now is    10685.3 secs

     total energy              =   -6417.95562385 Ry
     estimated scf accuracy    <          3.7E-10 Ry

     iteration # 20     ecut=    60.00 Ry     beta= 0.70
     Davidson diagonalization with overlap

---- Real-time Memory Report at c_bands before calling an iterative solver
           935 MiB given to the printing process from OS
             0 MiB allocation reported by mallinfo(arena+hblkhd)
         25865 MiB available memory on the node where the printing process lives
------------------
     ethr =  1.00E-13,  avg # of iterations =  2.0

     negative rho (up, down):  1.326E-03 0.000E+00

     total cpu time spent up to now is    10696.6 secs

     total energy              =   -6417.95562385 Ry
     estimated scf accuracy    <          2.6E-10 Ry

     iteration # 21     ecut=    60.00 Ry     beta= 0.70
     Davidson diagonalization with overlap

---- Real-time Memory Report at c_bands before calling an iterative solver
           935 MiB given to the printing process from OS
             0 MiB allocation reported by mallinfo(arena+hblkhd)
         25864 MiB available memory on the node where the printing process lives
------------------
     ethr =  1.00E-13,  avg # of iterations =  2.1

     negative rho (up, down):  1.326E-03 0.000E+00

     total cpu time spent up to now is    10709.8 secs

     total energy              =   -6417.95562385 Ry
     estimated scf accuracy    <          2.0E-10 Ry

     iteration # 22     ecut=    60.00 Ry     beta= 0.70
     Davidson diagonalization with overlap

---- Real-time Memory Report at c_bands before calling an iterative solver
           935 MiB given to the printing process from OS
             0 MiB allocation reported by mallinfo(arena+hblkhd)
         25869 MiB available memory on the node where the printing process lives
------------------
     ethr =  1.00E-13,  avg # of iterations =  1.0

     negative rho (up, down):  1.326E-03 0.000E+00

===================================================================================
=   BAD TERMINATION OF ONE OF YOUR APPLICATION PROCESSES
=   RANK 27 PID 31112 RUNNING AT node8101
=   KILLED BY SIGNAL: 11 (Segmentation fault)
===================================================================================

===================================================================================
=   BAD TERMINATION OF ONE OF YOUR APPLICATION PROCESSES
=   RANK 28 PID 31113 RUNNING AT node8101
=   KILLED BY SIGNAL: 11 (Segmentation fault)
===================================================================================

===================================================================================
=   BAD TERMINATION OF ONE OF YOUR APPLICATION PROCESSES
=   RANK 29 PID 31114 RUNNING AT node8101
=   KILLED BY SIGNAL: 11 (Segmentation fault)
===================================================================================

===================================================================================
=   BAD TERMINATION OF ONE OF YOUR APPLICATION PROCESSES
=   RANK 37 PID 31124 RUNNING AT node8101
=   KILLED BY SIGNAL: 11 (Segmentation fault)
===================================================================================

===================================================================================
=   BAD TERMINATION OF ONE OF YOUR APPLICATION PROCESSES
=   RANK 40 PID 31127 RUNNING AT node8101
=   KILLED BY SIGNAL: 11 (Segmentation fault)
===================================================================================

===================================================================================
=   BAD TERMINATION OF ONE OF YOUR APPLICATION PROCESSES
=   RANK 54 PID 31141 RUNNING AT node8101
=   KILLED BY SIGNAL: 11 (Segmentation fault)
===================================================================================
