
     Program PWSCF v.7.5 starts on 21Jun2026 at  1: 3:36 

     This program is part of the open-source Quantum ESPRESSO suite
     for quantum simulation of materials; please cite
         "P. Giannozzi et al., J. Phys.:Condens. Matter 21 395502 (2009);
         "P. Giannozzi et al., J. Phys.:Condens. Matter 29 465901 (2017);
         "P. Giannozzi et al., J. Chem. Phys. 152 154105 (2020);
          URL http://www.quantum-espresso.org", 
     in publications or presentations arising from this work. More details at
     http://www.quantum-espresso.org/quote

     Parallel version (MPI), running on   136 processors

     MPI processes distributed on     2 nodes
     73365 MiB available memory on the printing compute node when the environment starts
 
     Waiting for input...
     Reading input from standard input

     Current dimensions of program PWSCF are:
     Max number of different atomic species (ntypx) = 10
     Max number of k-points (npk) =  40000
     Max angular momentum in pseudopotentials (lmaxx) =  4
     file Nb.pbe-spn-kjpaw_psl.1.0.0.UPF: wavefunction(s)  4S 4P 4D renormalized
     file Se.pbe-n-kjpaw_psl.1.0.0.UPF: wavefunction(s)  4S renormalized
     Message from routine setup:
     using ibrav=0 with symmetry is DISCOURAGED, use correct ibrav instead
 
     K-points division:     npool     =       8
     R & G space division:  proc/nbgrp/npool/nimage =      17
     Subspace diagonalization in iterative solution of the eigenvalue problem:
     a serial algorithm will be used

 
     Parallelization info
     --------------------
     sticks:   dense  smooth     PW     G-vecs:    dense   smooth      PW
     Min          83      42     12                16187     5716     905
     Max          84      43     14                16218     5732     918
     Sum        1417     721    211               275365    97333   15489
 
     Using Slab Decomposition
 


     bravais-lattice index     =            0
     lattice parameter (alat)  =       6.5628  a.u.
     unit-cell volume          =    1550.6296 (a.u.)^3
     number of atoms/cell      =            3
     number of atomic types    =            2
     number of electrons       =        25.00
     number of Kohn-Sham states=           17
     kinetic-energy cutoff     =      60.0000  Ry
     charge density cutoff     =     480.0000  Ry
     scf convergence threshold =      1.0E-16
     mixing beta               =       0.7000
     number of iterations used =            8  plain     mixing
     Exchange-correlation= SLA  PW   PBX  PBC
                           (   1   4   3   4   0   0   0)

     celldm(1)=   6.562768  celldm(2)=   0.000000  celldm(3)=   0.000000
     celldm(4)=   0.000000  celldm(5)=   0.000000  celldm(6)=   0.000000

     crystal axes: (cart. coord. in units of alat)
               a(1) = (   1.000000   0.000000   0.000000 )  
               a(2) = (  -0.500000   0.865989   0.000000 )  
               a(3) = (   0.000000   0.000000   6.334823 )  

     reciprocal axes: (cart. coord. in units 2 pi/alat)
               b(1) = (  1.000000  0.577374  0.000000 )  
               b(2) = (  0.000000  1.154749  0.000000 )  
               b(3) = (  0.000000  0.000000  0.157858 )  


     PseudoPot. # 1 for Nb read from file:
     ../pseudos/Nb.pbe-spn-kjpaw_psl.1.0.0.UPF
     MD5 check sum: dcedcbb129af9a7271e4748e5febedb1
     Pseudo is Projector augmented-wave + core cor, Zval = 13.0
     Generated using &quot;atomic&quot; code by A. Dal Corso  v.6.2.2
     Shape of augmentation charge: PSQ
     Using radial grid of 1227 points,  6 beta functions with: 
                l(1) =   0
                l(2) =   0
                l(3) =   1
                l(4) =   1
                l(5) =   2
                l(6) =   2
     Q(r) pseudized with 0 coefficients 


     PseudoPot. # 2 for Se read from file:
     ../pseudos/Se.pbe-n-kjpaw_psl.1.0.0.UPF
     MD5 check sum: 12232cb78b362a7b0fca8da9cb95fd5e
     Pseudo is Projector augmented-wave + core cor, Zval =  6.0
     Generated using &quot;atomic&quot; code by A. Dal Corso  v.6.3
     Shape of augmentation charge: PSQ
     Using radial grid of 1211 points,  4 beta functions with: 
                l(1) =   0
                l(2) =   0
                l(3) =   1
                l(4) =   1
     Q(r) pseudized with 0 coefficients 


     atomic species   valence    mass     pseudopotential
     Nb               13.00    92.90638     Nb( 1.00)
     Se                6.00    78.97100     Se( 1.00)

      4 Sym. Ops. (no inversion) found


                                    s                        frac. trans.

      isym =  1     identity                                     

 cryst.   s( 1) = (     1          0          0      )
                  (     0          1          0      )
                  (     0          0          1      )

 cart.    s( 1) = (  1.0000000  0.0000000  0.0000000 )
                  (  0.0000000  1.0000000  0.0000000 )
                  (  0.0000000  0.0000000  1.0000000 )


      isym =  2     180 deg rotation - cart. axis [0,1,0]        

 cryst.   s( 2) = (    -1          0          0      )
                  (     1          1          0      )
                  (     0          0         -1      )

 cart.    s( 2) = ( -1.0000000  0.0000000  0.0000000 )
                  (  0.0000000  1.0000000  0.0000000 )
                  (  0.0000000  0.0000000 -1.0000000 )


      isym =  3     inv. 180 deg rotation - cart. axis [0,0,1]   

 cryst.   s( 3) = (     1          0          0      )
                  (     0          1          0      )
                  (     0          0         -1      )

 cart.    s( 3) = (  1.0000000  0.0000000  0.0000000 )
                  (  0.0000000  1.0000000  0.0000000 )
                  (  0.0000000  0.0000000 -1.0000000 )


      isym =  4     inv. 180 deg rotation - cart. axis [1,0,0]   

 cryst.   s( 4) = (    -1          0          0      )
                  (     1          1          0      )
                  (     0          0          1      )

 cart.    s( 4) = ( -1.0000000  0.0000000  0.0000000 )
                  (  0.0000000  1.0000000  0.0000000 )
                  (  0.0000000  0.0000000  1.0000000 )


   Cartesian axes

     site n.     atom                  positions (alat units)
         1        Nb     tau(   1) = (  -0.0000000   0.5773261   0.0000000  )
         2        Se     tau(   2) = (   0.5000000   0.2886630   0.4840148  )
         3        Se     tau(   3) = (   0.5000000   0.2886630  -0.4840148  )

   Crystallographic axes

     site n.     atom                  positions (cryst. coord.)
         1        Nb     tau(   1) = (  0.3333333  0.6666667  0.0000000  )
         2        Se     tau(   2) = (  0.6666667  0.3333333  0.0764054  )
         3        Se     tau(   3) = (  0.6666667  0.3333333 -0.0764054  )

     number of k points=    43  Marzari-Vanderbilt smearing, width (Ry)=  0.0100
                       cart. coord. in units 2pi/alat
        k(    1) = (   0.0000000   0.0000000   0.0000000), wk =   0.0138889
        k(    2) = (   0.0000000   0.0962291   0.0000000), wk =   0.0277778
        k(    3) = (   0.0000000   0.1924581   0.0000000), wk =   0.0277778
        k(    4) = (   0.0000000   0.2886872   0.0000000), wk =   0.0277778
        k(    5) = (   0.0000000   0.3849163   0.0000000), wk =   0.0277778
        k(    6) = (   0.0000000   0.4811454   0.0000000), wk =   0.0277778
        k(    7) = (   0.0000000  -0.5773744   0.0000000), wk =   0.0138889
        k(    8) = (   0.0833333   0.0481145   0.0000000), wk =   0.0555556
        k(    9) = (   0.0833333   0.1443436   0.0000000), wk =   0.0555556
        k(   10) = (   0.0833333   0.2405727   0.0000000), wk =   0.0555556
        k(   11) = (   0.0833333   0.3368018   0.0000000), wk =   0.0555556
        k(   12) = (   0.0833333   0.4330308   0.0000000), wk =   0.0555556
        k(   13) = (   0.0833333   0.5292599   0.0000000), wk =   0.0555556
        k(   14) = (   0.1666667   0.0962291   0.0000000), wk =   0.0555556
        k(   15) = (   0.1666667   0.1924581   0.0000000), wk =   0.0555556
        k(   16) = (   0.1666667   0.2886872   0.0000000), wk =   0.0555556
        k(   17) = (   0.1666667   0.3849163   0.0000000), wk =   0.0555556
        k(   18) = (   0.1666667   0.4811454   0.0000000), wk =   0.0555556
        k(   19) = (   0.1666667   0.5773744   0.0000000), wk =   0.0277778
        k(   20) = (   0.1666667  -0.0000000   0.0000000), wk =   0.0277778
        k(   21) = (   0.2500000   0.1443436   0.0000000), wk =   0.0555556
        k(   22) = (   0.2500000   0.2405727   0.0000000), wk =   0.0555556
        k(   23) = (   0.2500000   0.3368018   0.0000000), wk =   0.0555556
        k(   24) = (   0.2500000   0.4330308   0.0000000), wk =   0.0555556
        k(   25) = (   0.2500000   0.5292599   0.0000000), wk =   0.0555556
        k(   26) = (   0.2500000  -0.0481145   0.0000000), wk =   0.0555556
        k(   27) = (   0.3333333   0.1924581   0.0000000), wk =   0.0555556
        k(   28) = (   0.3333333   0.2886872   0.0000000), wk =   0.0555556
        k(   29) = (   0.3333333   0.3849163   0.0000000), wk =   0.0555556
        k(   30) = (   0.3333333   0.4811454   0.0000000), wk =   0.0555556
        k(   31) = (   0.3333333   0.5773744   0.0000000), wk =   0.0277778
        k(   32) = (   0.3333333  -0.0962291   0.0000000), wk =   0.0555556
        k(   33) = (   0.3333333  -0.0000000   0.0000000), wk =   0.0277778
        k(   34) = (   0.4166667   0.2405727   0.0000000), wk =   0.0555556
        k(   35) = (   0.4166667   0.3368018   0.0000000), wk =   0.0555556
        k(   36) = (   0.4166667   0.4330308   0.0000000), wk =   0.0555556
        k(   37) = (   0.4166667   0.5292599   0.0000000), wk =   0.0555556
        k(   38) = (   0.4166667  -0.1443436   0.0000000), wk =   0.0555556
        k(   39) = (   0.4166667  -0.0481145   0.0000000), wk =   0.0555556
        k(   40) = (  -0.5000000  -0.2886872   0.0000000), wk =   0.0277778
        k(   41) = (  -0.5000000  -0.1924581   0.0000000), wk =   0.0555556
        k(   42) = (  -0.5000000  -0.0962291   0.0000000), wk =   0.0555556
        k(   43) = (  -0.5000000   0.0000000   0.0000000), wk =   0.0277778

                       cryst. coord.
        k(    1) = (   0.0000000   0.0000000   0.0000000), wk =   0.0138889
        k(    2) = (   0.0000000   0.0833333   0.0000000), wk =   0.0277778
        k(    3) = (   0.0000000   0.1666667   0.0000000), wk =   0.0277778
        k(    4) = (   0.0000000   0.2500000   0.0000000), wk =   0.0277778
        k(    5) = (   0.0000000   0.3333333   0.0000000), wk =   0.0277778
        k(    6) = (   0.0000000   0.4166667   0.0000000), wk =   0.0277778
        k(    7) = (   0.0000000  -0.5000000   0.0000000), wk =   0.0138889
        k(    8) = (   0.0833333   0.0000000   0.0000000), wk =   0.0555556
        k(    9) = (   0.0833333   0.0833333   0.0000000), wk =   0.0555556
        k(   10) = (   0.0833333   0.1666667   0.0000000), wk =   0.0555556
        k(   11) = (   0.0833333   0.2500000   0.0000000), wk =   0.0555556
        k(   12) = (   0.0833333   0.3333333   0.0000000), wk =   0.0555556
        k(   13) = (   0.0833333   0.4166667   0.0000000), wk =   0.0555556
        k(   14) = (   0.1666667   0.0000000   0.0000000), wk =   0.0555556
        k(   15) = (   0.1666667   0.0833333   0.0000000), wk =   0.0555556
        k(   16) = (   0.1666667   0.1666667   0.0000000), wk =   0.0555556
        k(   17) = (   0.1666667   0.2500000   0.0000000), wk =   0.0555556
        k(   18) = (   0.1666667   0.3333333   0.0000000), wk =   0.0555556
        k(   19) = (   0.1666667   0.4166667   0.0000000), wk =   0.0277778
        k(   20) = (   0.1666667  -0.0833333   0.0000000), wk =   0.0277778
        k(   21) = (   0.2500000   0.0000000   0.0000000), wk =   0.0555556
        k(   22) = (   0.2500000   0.0833333   0.0000000), wk =   0.0555556
        k(   23) = (   0.2500000   0.1666667   0.0000000), wk =   0.0555556
        k(   24) = (   0.2500000   0.2500000   0.0000000), wk =   0.0555556
        k(   25) = (   0.2500000   0.3333333   0.0000000), wk =   0.0555556
        k(   26) = (   0.2500000  -0.1666667   0.0000000), wk =   0.0555556
        k(   27) = (   0.3333333   0.0000000   0.0000000), wk =   0.0555556
        k(   28) = (   0.3333333   0.0833333   0.0000000), wk =   0.0555556
        k(   29) = (   0.3333333   0.1666667   0.0000000), wk =   0.0555556
        k(   30) = (   0.3333333   0.2500000   0.0000000), wk =   0.0555556
        k(   31) = (   0.3333333   0.3333333   0.0000000), wk =   0.0277778
        k(   32) = (   0.3333333  -0.2500000   0.0000000), wk =   0.0555556
        k(   33) = (   0.3333333  -0.1666667   0.0000000), wk =   0.0277778
        k(   34) = (   0.4166667   0.0000000   0.0000000), wk =   0.0555556
        k(   35) = (   0.4166667   0.0833333   0.0000000), wk =   0.0555556
        k(   36) = (   0.4166667   0.1666667   0.0000000), wk =   0.0555556
        k(   37) = (   0.4166667   0.2500000   0.0000000), wk =   0.0555556
        k(   38) = (   0.4166667  -0.3333333   0.0000000), wk =   0.0555556
        k(   39) = (   0.4166667  -0.2500000   0.0000000), wk =   0.0555556
        k(   40) = (  -0.5000000  -0.0000000   0.0000000), wk =   0.0277778
        k(   41) = (  -0.5000000   0.0833333   0.0000000), wk =   0.0555556
        k(   42) = (  -0.5000000   0.1666667   0.0000000), wk =   0.0555556
        k(   43) = (  -0.5000000   0.2500000   0.0000000), wk =   0.0277778

     Dense  grid:   275365 G-vectors     FFT dimensions: (  45,  45, 300)

     Smooth grid:    97333 G-vectors     FFT dimensions: (  36,  36, 216)

     Dynamical RAM for                 wfc:       0.19 MB

     Dynamical RAM for     wfc (w. buffer):       1.30 MB

     Dynamical RAM for           str. fact:       0.49 MB

     Dynamical RAM for           local pot:       0.00 MB

     Dynamical RAM for          nlocal pot:       0.37 MB

     Dynamical RAM for                qrad:       3.52 MB

     Dynamical RAM for          rho,v,vnew:       1.58 MB

     Dynamical RAM for               rhoin:       0.53 MB

     Dynamical RAM for            rho*nmix:       3.96 MB

     Dynamical RAM for           G-vectors:       0.97 MB

     Dynamical RAM for          h,s,v(r/c):       0.05 MB

     Dynamical RAM for          <psi|beta>:       0.01 MB

     Dynamical RAM for                 psi:       0.37 MB

     Dynamical RAM for                hpsi:       0.37 MB

     Dynamical RAM for                spsi:       0.37 MB

     Dynamical RAM for      wfcinit/wfcrot:       0.38 MB

     Dynamical RAM for           addusdens:       6.03 MB

     Estimated static dynamical RAM per process >      10.89 MB

     Estimated max dynamical RAM per process >      20.88 MB

     Estimated total dynamical RAM >       2.31 GB
 ----2D----2D----2D----2D----2D----2D----2D----2D----2D----2D----2D----2D
  The code is running with the 2D cutoff
  Please refer to:
  Sohier, T., Calandra, M., & Mauri, F. (2017), 
  Density functional perturbation theory for gated two-dimensional heterostructu
 res:
  Theoretical developments and application to flexural phonons in graphene.
  Physical Review B, 96(7), 75448. https://doi.org/10.1103/PhysRevB.96.075448
 ----2D----2D----2D----2D----2D----2D----2D----2D----2D----2D----2D----2D

     Initial potential from superposition of free atoms

     starting charge      24.9985, renormalised to      25.0000

     negative rho (up, down):  1.535E-04 0.000E+00
     Starting wfcs are   21 randomized atomic wfcs
     Checking if some PAW data can be deallocated... 
       PAW data deallocated on   90 nodes for type:  1
       PAW data deallocated on   46 nodes for type:  2

     total cpu time spent up to now is        3.6 secs

     Self-consistent Calculation

     iteration #  1     ecut=    60.00 Ry     beta= 0.70
     Davidson diagonalization with overlap

---- Real-time Memory Report at c_bands before calling an iterative solver
           660 MiB given to the printing process from OS
             0 MiB allocation reported by mallinfo(arena+hblkhd)
         35250 MiB available memory on the node where the printing process lives
------------------
     ethr =  1.00E-02,  avg # of iterations =  2.0

     Threshold (ethr) on eigenvalues was too large:
     Diagonalizing with lowered threshold

     Davidson diagonalization with overlap

---- Real-time Memory Report at c_bands before calling an iterative solver
           668 MiB given to the printing process from OS
             0 MiB allocation reported by mallinfo(arena+hblkhd)
         35127 MiB available memory on the node where the printing process lives
------------------
     ethr =  2.53E-04,  avg # of iterations =  2.9

     negative rho (up, down):  1.364E-04 0.000E+00

     total cpu time spent up to now is        5.2 secs

     total energy              =    -713.07763747 Ry
     estimated scf accuracy    <       0.08659557 Ry

     iteration #  2     ecut=    60.00 Ry     beta= 0.70
     Davidson diagonalization with overlap

---- Real-time Memory Report at c_bands before calling an iterative solver
           676 MiB given to the printing process from OS
             0 MiB allocation reported by mallinfo(arena+hblkhd)
         34725 MiB available memory on the node where the printing process lives
------------------
     ethr =  3.46E-04,  avg # of iterations =  2.0

     negative rho (up, down):  1.418E-04 0.000E+00

     total cpu time spent up to now is        6.0 secs

     total energy              =    -713.06256576 Ry
     estimated scf accuracy    <       0.15292532 Ry

     iteration #  3     ecut=    60.00 Ry     beta= 0.70
     Davidson diagonalization with overlap

---- Real-time Memory Report at c_bands before calling an iterative solver
           681 MiB given to the printing process from OS
             0 MiB allocation reported by mallinfo(arena+hblkhd)
         34581 MiB available memory on the node where the printing process lives
------------------
     ethr =  3.46E-04,  avg # of iterations =  2.0

     negative rho (up, down):  1.390E-04 0.000E+00

     total cpu time spent up to now is        6.9 secs

     total energy              =    -713.08975139 Ry
     estimated scf accuracy    <       0.12560210 Ry

     iteration #  4     ecut=    60.00 Ry     beta= 0.70
     Davidson diagonalization with overlap

---- Real-time Memory Report at c_bands before calling an iterative solver
           682 MiB given to the printing process from OS
             0 MiB allocation reported by mallinfo(arena+hblkhd)
         34574 MiB available memory on the node where the printing process lives
------------------
     ethr =  3.46E-04,  avg # of iterations =  1.1

     negative rho (up, down):  1.320E-04 0.000E+00

     total cpu time spent up to now is        7.6 secs

     total energy              =    -713.10564992 Ry
     estimated scf accuracy    <       0.00073092 Ry

     iteration #  5     ecut=    60.00 Ry     beta= 0.70
     Davidson diagonalization with overlap

---- Real-time Memory Report at c_bands before calling an iterative solver
           682 MiB given to the printing process from OS
             0 MiB allocation reported by mallinfo(arena+hblkhd)
         34562 MiB available memory on the node where the printing process lives
------------------
     ethr =  2.92E-06,  avg # of iterations =  4.3

     negative rho (up, down):  1.412E-04 0.000E+00

     total cpu time spent up to now is        8.7 secs

     total energy              =    -713.10603154 Ry
     estimated scf accuracy    <       0.00022578 Ry

     iteration #  6     ecut=    60.00 Ry     beta= 0.70
     Davidson diagonalization with overlap

---- Real-time Memory Report at c_bands before calling an iterative solver
           682 MiB given to the printing process from OS
             0 MiB allocation reported by mallinfo(arena+hblkhd)
         34542 MiB available memory on the node where the printing process lives
------------------
     ethr =  9.03E-07,  avg # of iterations =  1.0

     negative rho (up, down):  1.468E-04 0.000E+00

     total cpu time spent up to now is        9.4 secs

     total energy              =    -713.10605025 Ry
     estimated scf accuracy    <       0.00001127 Ry

     iteration #  7     ecut=    60.00 Ry     beta= 0.70
     Davidson diagonalization with overlap

---- Real-time Memory Report at c_bands before calling an iterative solver
           683 MiB given to the printing process from OS
             0 MiB allocation reported by mallinfo(arena+hblkhd)
         34548 MiB available memory on the node where the printing process lives
------------------
     ethr =  4.51E-08,  avg # of iterations =  3.3

     negative rho (up, down):  1.478E-04 0.000E+00

     total cpu time spent up to now is       10.3 secs

     total energy              =    -713.10605330 Ry
     estimated scf accuracy    <       0.00000027 Ry

     iteration #  8     ecut=    60.00 Ry     beta= 0.70
     Davidson diagonalization with overlap

---- Real-time Memory Report at c_bands before calling an iterative solver
           683 MiB given to the printing process from OS
             0 MiB allocation reported by mallinfo(arena+hblkhd)
         34540 MiB available memory on the node where the printing process lives
------------------
     ethr =  1.07E-09,  avg # of iterations =  3.8

     negative rho (up, down):  1.480E-04 0.000E+00

     total cpu time spent up to now is       11.2 secs

     total energy              =    -713.10605342 Ry
     estimated scf accuracy    <       0.00000003 Ry

     iteration #  9     ecut=    60.00 Ry     beta= 0.70
     Davidson diagonalization with overlap

---- Real-time Memory Report at c_bands before calling an iterative solver
           683 MiB given to the printing process from OS
             0 MiB allocation reported by mallinfo(arena+hblkhd)
         34542 MiB available memory on the node where the printing process lives
------------------
     ethr =  1.27E-10,  avg # of iterations =  2.6

     negative rho (up, down):  1.480E-04 0.000E+00

     total cpu time spent up to now is       12.1 secs

     total energy              =    -713.10605342 Ry
     estimated scf accuracy    <          2.8E-09 Ry

     iteration # 10     ecut=    60.00 Ry     beta= 0.70
     Davidson diagonalization with overlap

---- Real-time Memory Report at c_bands before calling an iterative solver
           683 MiB given to the printing process from OS
             0 MiB allocation reported by mallinfo(arena+hblkhd)
         34540 MiB available memory on the node where the printing process lives
------------------
     ethr =  1.13E-11,  avg # of iterations =  2.0

     negative rho (up, down):  1.480E-04 0.000E+00

     total cpu time spent up to now is       13.1 secs

     total energy              =    -713.10605343 Ry
     estimated scf accuracy    <          9.2E-11 Ry

     iteration # 11     ecut=    60.00 Ry     beta= 0.70
     Davidson diagonalization with overlap

---- Real-time Memory Report at c_bands before calling an iterative solver
           684 MiB given to the printing process from OS
             0 MiB allocation reported by mallinfo(arena+hblkhd)
         34540 MiB available memory on the node where the printing process lives
------------------
     ethr =  3.66E-13,  avg # of iterations =  3.3

     negative rho (up, down):  1.480E-04 0.000E+00

     total cpu time spent up to now is       14.4 secs

     total energy              =    -713.10605343 Ry
     estimated scf accuracy    <          3.2E-11 Ry

     iteration # 12     ecut=    60.00 Ry     beta= 0.70
     Davidson diagonalization with overlap

---- Real-time Memory Report at c_bands before calling an iterative solver
           684 MiB given to the printing process from OS
             0 MiB allocation reported by mallinfo(arena+hblkhd)
         34539 MiB available memory on the node where the printing process lives
------------------
     ethr =  1.26E-13,  avg # of iterations =  1.8

     negative rho (up, down):  1.480E-04 0.000E+00

     total cpu time spent up to now is       15.2 secs

     total energy              =    -713.10605343 Ry
     estimated scf accuracy    <          6.9E-12 Ry

     iteration # 13     ecut=    60.00 Ry     beta= 0.70
     Davidson diagonalization with overlap

---- Real-time Memory Report at c_bands before calling an iterative solver
           684 MiB given to the printing process from OS
             0 MiB allocation reported by mallinfo(arena+hblkhd)
         34539 MiB available memory on the node where the printing process lives
------------------
     ethr =  1.00E-13,  avg # of iterations =  2.0

     negative rho (up, down):  1.480E-04 0.000E+00

     total cpu time spent up to now is       16.0 secs

     total energy              =    -713.10605343 Ry
     estimated scf accuracy    <          6.9E-13 Ry

     iteration # 14     ecut=    60.00 Ry     beta= 0.70
     Davidson diagonalization with overlap

---- Real-time Memory Report at c_bands before calling an iterative solver
           684 MiB given to the printing process from OS
             0 MiB allocation reported by mallinfo(arena+hblkhd)
         34539 MiB available memory on the node where the printing process lives
------------------
     ethr =  1.00E-13,  avg # of iterations =  1.0

     negative rho (up, down):  1.480E-04 0.000E+00

     total cpu time spent up to now is       16.7 secs

     total energy              =    -713.10605343 Ry
     estimated scf accuracy    <          1.5E-13 Ry

     iteration # 15     ecut=    60.00 Ry     beta= 0.70
     Davidson diagonalization with overlap

---- Real-time Memory Report at c_bands before calling an iterative solver
           684 MiB given to the printing process from OS
             0 MiB allocation reported by mallinfo(arena+hblkhd)
         34544 MiB available memory on the node where the printing process lives
------------------
     ethr =  1.00E-13,  avg # of iterations =  1.0

     negative rho (up, down):  1.480E-04 0.000E+00

     total cpu time spent up to now is       18.0 secs

     total energy              =    -713.10605343 Ry
     estimated scf accuracy    <          3.3E-14 Ry

     iteration # 16     ecut=    60.00 Ry     beta= 0.70
     Davidson diagonalization with overlap

---- Real-time Memory Report at c_bands before calling an iterative solver
           684 MiB given to the printing process from OS
             0 MiB allocation reported by mallinfo(arena+hblkhd)
         34537 MiB available memory on the node where the printing process lives
------------------
     ethr =  1.00E-13,  avg # of iterations =  1.0

     negative rho (up, down):  1.480E-04 0.000E+00

     total cpu time spent up to now is       18.7 secs

     total energy              =    -713.10605343 Ry
     estimated scf accuracy    <          1.3E-15 Ry

     iteration # 17     ecut=    60.00 Ry     beta= 0.70
     Davidson diagonalization with overlap

---- Real-time Memory Report at c_bands before calling an iterative solver
           684 MiB given to the printing process from OS
             0 MiB allocation reported by mallinfo(arena+hblkhd)
         34542 MiB available memory on the node where the printing process lives
------------------
     ethr =  1.00E-13,  avg # of iterations =  1.0

     negative rho (up, down):  1.480E-04 0.000E+00

     total cpu time spent up to now is       19.4 secs

     total energy              =    -713.10605343 Ry
     estimated scf accuracy    <          1.3E-16 Ry

     iteration # 18     ecut=    60.00 Ry     beta= 0.70
     Davidson diagonalization with overlap

---- Real-time Memory Report at c_bands before calling an iterative solver
           684 MiB given to the printing process from OS
             0 MiB allocation reported by mallinfo(arena+hblkhd)
         34538 MiB available memory on the node where the printing process lives
------------------
     ethr =  1.00E-13,  avg # of iterations =  1.0

     negative rho (up, down):  1.480E-04 0.000E+00

     total cpu time spent up to now is       20.1 secs

     total energy              =    -713.10605343 Ry
     estimated scf accuracy    <          4.7E-16 Ry

     iteration # 19     ecut=    60.00 Ry     beta= 0.70
     Davidson diagonalization with overlap

---- Real-time Memory Report at c_bands before calling an iterative solver
           685 MiB given to the printing process from OS
             0 MiB allocation reported by mallinfo(arena+hblkhd)
         34537 MiB available memory on the node where the printing process lives
------------------
     ethr =  1.00E-13,  avg # of iterations =  1.0

     negative rho (up, down):  1.480E-04 0.000E+00

     total cpu time spent up to now is       20.9 secs

     total energy              =    -713.10605343 Ry
     estimated scf accuracy    <          8.0E-16 Ry

     iteration # 20     ecut=    60.00 Ry     beta= 0.70
     Davidson diagonalization with overlap

---- Real-time Memory Report at c_bands before calling an iterative solver
           685 MiB given to the printing process from OS
             0 MiB allocation reported by mallinfo(arena+hblkhd)
         34537 MiB available memory on the node where the printing process lives
------------------
     ethr =  1.00E-13,  avg # of iterations =  1.0

     negative rho (up, down):  1.480E-04 0.000E+00

     total cpu time spent up to now is       21.6 secs

     total energy              =    -713.10605343 Ry
     estimated scf accuracy    <          1.3E-15 Ry

     iteration # 21     ecut=    60.00 Ry     beta= 0.70
     Davidson diagonalization with overlap

---- Real-time Memory Report at c_bands before calling an iterative solver
           685 MiB given to the printing process from OS
             0 MiB allocation reported by mallinfo(arena+hblkhd)
         34542 MiB available memory on the node where the printing process lives
------------------
     ethr =  1.00E-13,  avg # of iterations =  1.0

     negative rho (up, down):  1.480E-04 0.000E+00

     total cpu time spent up to now is       22.3 secs

     total energy              =    -713.10605343 Ry
     estimated scf accuracy    <          3.0E-15 Ry

     iteration # 22     ecut=    60.00 Ry     beta= 0.70
     Davidson diagonalization with overlap

---- Real-time Memory Report at c_bands before calling an iterative solver
           685 MiB given to the printing process from OS
             0 MiB allocation reported by mallinfo(arena+hblkhd)
         34540 MiB available memory on the node where the printing process lives
------------------
     ethr =  1.00E-13,  avg # of iterations =  1.0

     negative rho (up, down):  1.480E-04 0.000E+00

     total cpu time spent up to now is       23.1 secs

     total energy              =    -713.10605343 Ry
     estimated scf accuracy    <          3.9E-15 Ry

     iteration # 23     ecut=    60.00 Ry     beta= 0.70
     Davidson diagonalization with overlap

---- Real-time Memory Report at c_bands before calling an iterative solver
           685 MiB given to the printing process from OS
             0 MiB allocation reported by mallinfo(arena+hblkhd)
         34538 MiB available memory on the node where the printing process lives
------------------
     ethr =  1.00E-13,  avg # of iterations =  1.0

     negative rho (up, down):  1.480E-04 0.000E+00

     total cpu time spent up to now is       24.0 secs

     total energy              =    -713.10605343 Ry
     estimated scf accuracy    <          3.9E-15 Ry

     iteration # 24     ecut=    60.00 Ry     beta= 0.70
     Davidson diagonalization with overlap

---- Real-time Memory Report at c_bands before calling an iterative solver
           685 MiB given to the printing process from OS
             0 MiB allocation reported by mallinfo(arena+hblkhd)
         34535 MiB available memory on the node where the printing process lives
------------------
     ethr =  1.00E-13,  avg # of iterations =  1.0

     negative rho (up, down):  1.480E-04 0.000E+00

     total cpu time spent up to now is       24.9 secs

     total energy              =    -713.10605343 Ry
     estimated scf accuracy    <          2.4E-15 Ry

     iteration # 25     ecut=    60.00 Ry     beta= 0.70
     Davidson diagonalization with overlap

---- Real-time Memory Report at c_bands before calling an iterative solver
           686 MiB given to the printing process from OS
             0 MiB allocation reported by mallinfo(arena+hblkhd)
         34535 MiB available memory on the node where the printing process lives
------------------
     ethr =  1.00E-13,  avg # of iterations =  1.0

     negative rho (up, down):  1.480E-04 0.000E+00

     total cpu time spent up to now is       25.8 secs

     total energy              =    -713.10605343 Ry
     estimated scf accuracy    <          5.7E-16 Ry

     iteration # 26     ecut=    60.00 Ry     beta= 0.70
     Davidson diagonalization with overlap

---- Real-time Memory Report at c_bands before calling an iterative solver
           686 MiB given to the printing process from OS
             0 MiB allocation reported by mallinfo(arena+hblkhd)
         34530 MiB available memory on the node where the printing process lives
------------------
     ethr =  1.00E-13,  avg # of iterations =  1.0

     negative rho (up, down):  1.480E-04 0.000E+00

     total cpu time spent up to now is       26.5 secs

     total energy              =    -713.10605343 Ry
     estimated scf accuracy    <          2.3E-16 Ry

     iteration # 27     ecut=    60.00 Ry     beta= 0.70
     Davidson diagonalization with overlap

---- Real-time Memory Report at c_bands before calling an iterative solver
           686 MiB given to the printing process from OS
             0 MiB allocation reported by mallinfo(arena+hblkhd)
         34533 MiB available memory on the node where the printing process lives
------------------
     ethr =  1.00E-13,  avg # of iterations =  1.0

     negative rho (up, down):  1.480E-04 0.000E+00

     total cpu time spent up to now is       27.2 secs

     End of self-consistent calculation

          k = 0.0000 0.0000 0.0000 ( 12097 PWs)   bands (ev):

   -60.5480 -36.6296 -36.5246 -36.5245 -19.0479 -18.0886 -10.3287  -7.3174
    -7.3170  -6.8770  -6.3534  -6.3533  -4.9081  -2.5622  -2.5618  -2.3863
    -2.3860

     occupation numbers 
     1.0000   1.0000   1.0000   1.0000   1.0000   1.0000   1.0000   1.0000
     1.0000   1.0000   1.0000   1.0000   0.0000   0.0000   0.0000   0.0000
     0.0000

          k = 0.0000 0.0962 0.0000 ( 12094 PWs)   bands (ev):

   -60.5467 -36.6260 -36.5412 -36.5283 -18.9710 -18.0534 -10.2254  -7.5755
    -7.2400  -7.1591  -6.5022  -6.2507  -4.9671  -2.7310  -2.6684  -2.4857
    -2.4005

     occupation numbers 
     1.0000   1.0000   1.0000   1.0000   1.0000   1.0000   1.0000   1.0000
     1.0000   1.0000   1.0000   1.0000   0.0000   0.0000   0.0000   0.0000
     0.0000

          k = 0.0000 0.1925 0.0000 ( 12112 PWs)   bands (ev):

   -60.5430 -36.6163 -36.5864 -36.5386 -18.7532 -17.9538  -9.9475  -8.1897
    -7.6873  -7.0275  -6.8523  -6.3070  -5.2035  -3.0152  -2.8291  -2.7127
    -2.0290

     occupation numbers 
     1.0000   1.0000   1.0000   1.0000   1.0000   1.0000   1.0000   1.0000
     1.0000   1.0000   1.0000   1.0000   0.0001   0.0000   0.0000   0.0000
     0.0000

          k = 0.0000 0.2887 0.0000 ( 12154 PWs)   bands (ev):

   -60.5380 -36.6475 -36.6029 -36.5525 -18.4341 -17.8084  -9.6467  -8.8386
    -8.3113  -7.2446  -6.7389  -6.5504  -5.5891  -3.0684  -2.9269  -2.5699
    -1.6407

     occupation numbers 
     1.0000   1.0000   1.0000   1.0000   1.0000   1.0000   1.0000   1.0000
     1.0000   1.0000   1.0000   1.0000   0.8289   0.0000   0.0000   0.0000
     0.0000

          k = 0.0000 0.3849 0.0000 ( 12202 PWs)   bands (ev):

   -60.5330 -36.7078 -36.5896 -36.5665 -18.0830 -17.6504  -9.8504  -8.9753
    -8.9250  -7.5749  -6.7670  -6.4638  -5.8367  -3.0237  -2.9064  -2.1508
    -1.3520

     occupation numbers 
     1.0000   1.0000   1.0000   1.0000   1.0000   1.0000   1.0000   1.0000
     1.0000   1.0000   1.0000   1.0000   1.0139   0.0000   0.0000   0.0000
     0.0000

          k = 0.0000 0.4811 0.0000 ( 12212 PWs)   bands (ev):

   -60.5293 -36.7515 -36.5797 -36.5766 -17.7987 -17.5250 -10.2808  -9.3745
    -8.8777  -7.7893  -6.8854  -6.2821  -5.7881  -3.0024  -2.6924  -1.8197
    -1.1897

     occupation numbers 
     1.0000   1.0000   1.0000   1.0000   1.0000   1.0000   1.0000   1.0000
     1.0000   1.0000   1.0000   1.0000   1.0366   0.0000   0.0000   0.0000
     0.0000

          k = 0.0000-0.5774 0.0000 ( 12206 PWs)   bands (ev):

   -60.5279 -36.7674 -36.5803 -36.5762 -17.6873 -17.4768 -10.4538  -9.5390
    -8.8584  -7.8632  -6.9207  -6.2220  -5.6945  -2.9703  -2.5826  -1.7040
    -1.1392

     occupation numbers 
     1.0000   1.0000   1.0000   1.0000   1.0000   1.0000   1.0000   1.0000
     1.0000   1.0000   1.0000   1.0000   1.0827   0.0000   0.0000   0.0000
     0.0000

          k = 0.0833 0.0481 0.0000 ( 12094 PWs)   bands (ev):

   -60.5467 -36.6260 -36.5412 -36.5283 -18.9710 -18.0534 -10.2254  -7.5758
    -7.2397  -7.1592  -6.5020  -6.2508  -4.9671  -2.7312  -2.6686  -2.4854
    -2.4003

     occupation numbers 
     1.0000   1.0000   1.0000   1.0000   1.0000   1.0000   1.0000   1.0000
     1.0000   1.0000   1.0000   1.0000   0.0000   0.0000   0.0000   0.0000
     0.0000

          k = 0.0833 0.1443 0.0000 ( 12092 PWs)   bands (ev):

   -60.5441 -36.6194 -36.5713 -36.5361 -18.8236 -17.9859 -10.0330  -7.9991
    -7.4981  -7.1076  -6.8675  -6.1682  -5.1157  -2.9503  -2.8897  -2.6575
    -2.1028

     occupation numbers 
     1.0000   1.0000   1.0000   1.0000   1.0000   1.0000   1.0000   1.0000
     1.0000   1.0000   1.0000   1.0000   0.0000   0.0000   0.0000   0.0000
     0.0000

          k = 0.0833 0.2406 0.0000 ( 12127 PWs)   bands (ev):

   -60.5398 -36.6223 -36.6078 -36.5504 -18.5545 -17.8628  -9.7199  -8.6078
    -7.9942  -7.3691  -6.9131  -6.2516  -5.4291  -3.1573  -2.8333  -2.8289
    -1.6911

     occupation numbers 
     1.0000   1.0000   1.0000   1.0000   1.0000   1.0000   1.0000   1.0000
     1.0000   1.0000   1.0000   1.0000   0.1090   0.0000   0.0000   0.0000
     0.0000

          k = 0.0833 0.3368 0.0000 ( 12175 PWs)   bands (ev):

   -60.5348 -36.6804 -36.5945 -36.5669 -18.2171 -17.7094  -9.6200  -8.9896
    -8.6317  -7.6864  -6.7760  -6.5037  -5.6964  -3.1830  -2.8421  -2.4861
    -1.3694

     occupation numbers 
     1.0000   1.0000   1.0000   1.0000   1.0000   1.0000   1.0000   1.0000
     1.0000   1.0000   1.0000   1.0000   1.0830   0.0000   0.0000   0.0000
     0.0000

          k = 0.0833 0.4330 0.0000 ( 12182 PWs)   bands (ev):

   -60.5304 -36.7301 -36.5829 -36.5812 -17.8946 -17.5646 -10.0244  -9.2004
    -8.8871  -7.8465  -6.7529  -6.7340  -5.6819  -3.0519  -2.7518  -2.0493
    -1.2398

     occupation numbers 
     1.0000   1.0000   1.0000   1.0000   1.0000   1.0000   1.0000   1.0000
     1.0000   1.0000   1.0000   1.0000   1.0779   0.0000   0.0000   0.0000
     0.0000

          k = 0.0833 0.5293 0.0000 ( 12173 PWs)   bands (ev):

   -60.5278 -36.7586 -36.5894 -36.5761 -17.6917 -17.4751 -10.3242  -9.5258
    -8.8377  -7.9129  -6.8964  -6.6969  -5.5287  -2.9724  -2.5876  -1.6920
    -1.3105

     occupation numbers 
     1.0000   1.0000   1.0000   1.0000   1.0000   1.0000   1.0000   1.0000
     1.0000   1.0000   1.0000   1.0000   0.5062   0.0000   0.0000   0.0000
     0.0000

          k = 0.1667 0.0962 0.0000 ( 12112 PWs)   bands (ev):

   -60.5430 -36.6163 -36.5864 -36.5386 -18.7533 -17.9538  -9.9476  -8.1899
    -7.6874  -7.0273  -6.8521  -6.3071  -5.2036  -3.0153  -2.8292  -2.7125
    -2.0288

     occupation numbers 
     1.0000   1.0000   1.0000   1.0000   1.0000   1.0000   1.0000   1.0000
     1.0000   1.0000   1.0000   1.0000   0.0001   0.0000   0.0000   0.0000
     0.0000

          k = 0.1667 0.1925 0.0000 ( 12127 PWs)   bands (ev):

   -60.5398 -36.6223 -36.6078 -36.5504 -18.5545 -17.8628  -9.7199  -8.6079
    -7.9943  -7.3689  -6.9130  -6.2516  -5.4291  -3.1573  -2.8334  -2.8288
    -1.6910

     occupation numbers 
     1.0000   1.0000   1.0000   1.0000   1.0000   1.0000   1.0000   1.0000
     1.0000   1.0000   1.0000   1.0000   0.1091   0.0000   0.0000   0.0000
     0.0000

          k = 0.1667 0.2887 0.0000 ( 12158 PWs)   bands (ev):

   -60.5355 -36.6664 -36.5963 -36.5711 -18.2653 -17.7302  -9.5207  -8.9586
    -8.4207  -7.9029  -6.9790  -6.2980  -5.6214  -3.2835  -2.7970  -2.7154
    -1.3296

     occupation numbers 
     1.0000   1.0000   1.0000   1.0000   1.0000   1.0000   1.0000   1.0000
     1.0000   1.0000   1.0000   1.0000   0.9614   0.0000   0.0000   0.0000
     0.0000

          k = 0.1667 0.3849 0.0000 ( 12193 PWs)   bands (ev):

   -60.5311 -36.7079 -36.5939 -36.5847 -17.9509 -17.5861  -9.7345  -9.0342
    -8.8727  -8.0451  -7.2540  -6.5458  -5.6069  -3.1485  -2.7335  -2.3925
    -1.1529

     occupation numbers 
     1.0000   1.0000   1.0000   1.0000   1.0000   1.0000   1.0000   1.0000
     1.0000   1.0000   1.0000   1.0000   0.9076   0.0000   0.0000   0.0000
     0.0000

          k = 0.1667 0.4811 0.0000 ( 12205 PWs)   bands (ev):

   -60.5279 -36.7372 -36.6114 -36.5762 -17.7005 -17.4719 -10.0056  -9.4948
    -8.7783  -8.0274  -7.4588  -6.8258  -5.4228  -3.0342  -2.5615  -2.0294
    -1.1792

     occupation numbers 
     1.0000   1.0000   1.0000   1.0000   1.0000   1.0000   1.0000   1.0000
     1.0000   1.0000   1.0000   1.0000   0.0958   0.0000   0.0000   0.0000
     0.0000

          k = 0.1667 0.5774 0.0000 ( 12180 PWs)   bands (ev):

   -60.5267 -36.7478 -36.6179 -36.5730 -17.6036 -17.4279 -10.1099  -9.6609
    -8.7808  -7.9949  -7.5081  -6.9527  -5.2891  -3.1082  -2.3544  -1.8409
    -1.2588

     occupation numbers 
     1.0000   1.0000   1.0000   1.0000   1.0000   1.0000   1.0000   1.0000
     1.0000   1.0000   1.0000   1.0000   0.0023   0.0000   0.0000   0.0000
     0.0000

          k = 0.1667-0.0000 0.0000 ( 12092 PWs)   bands (ev):

   -60.5441 -36.6194 -36.5713 -36.5361 -18.8236 -17.9859 -10.0331  -7.9992
    -7.4981  -7.1073  -6.8674  -6.1682  -5.1157  -2.9504  -2.8897  -2.6574
    -2.1028

     occupation numbers 
     1.0000   1.0000   1.0000   1.0000   1.0000   1.0000   1.0000   1.0000
     1.0000   1.0000   1.0000   1.0000   0.0000   0.0000   0.0000   0.0000
     0.0000

          k = 0.2500 0.1443 0.0000 ( 12154 PWs)   bands (ev):

   -60.5380 -36.6475 -36.6029 -36.5525 -18.4342 -17.8085  -9.6467  -8.8388
    -8.3113  -7.2444  -6.7387  -6.5505  -5.5892  -3.0685  -2.9266  -2.5699
    -1.6406

     occupation numbers 
     1.0000   1.0000   1.0000   1.0000   1.0000   1.0000   1.0000   1.0000
     1.0000   1.0000   1.0000   1.0000   0.8293   0.0000   0.0000   0.0000
     0.0000

          k = 0.2500 0.2406 0.0000 ( 12175 PWs)   bands (ev):

   -60.5348 -36.6804 -36.5945 -36.5669 -18.2171 -17.7094  -9.6200  -8.9898
    -8.6317  -7.6863  -6.7758  -6.5037  -5.6964  -3.1830  -2.8420  -2.4861
    -1.3693

     occupation numbers 
     1.0000   1.0000   1.0000   1.0000   1.0000   1.0000   1.0000   1.0000
     1.0000   1.0000   1.0000   1.0000   1.0830   0.0000   0.0000   0.0000
     0.0000

          k = 0.2500 0.3368 0.0000 ( 12193 PWs)   bands (ev):

   -60.5311 -36.7079 -36.5939 -36.5847 -17.9510 -17.5861  -9.7345  -9.0342
    -8.8728  -8.0450  -7.2538  -6.5458  -5.6070  -3.1485  -2.7335  -2.3925
    -1.1528

     occupation numbers 
     1.0000   1.0000   1.0000   1.0000   1.0000   1.0000   1.0000   1.0000
     1.0000   1.0000   1.0000   1.0000   0.9077   0.0000   0.0000   0.0000
     0.0000

          k = 0.2500 0.4330 0.0000 ( 12184 PWs)   bands (ev):

   -60.5279 -36.7231 -36.6259 -36.5762 -17.7048 -17.4702  -9.7943  -9.4764
    -8.7134  -8.0906  -7.8822  -6.7814  -5.3987  -3.0797  -2.5409  -2.2227
    -1.0575

     occupation numbers 
     1.0000   1.0000   1.0000   1.0000   1.0000   1.0000   1.0000   1.0000
     1.0000   1.0000   1.0000   1.0000   0.0563   0.0000   0.0000   0.0000
     0.0000

          k = 0.2500 0.5293 0.0000 ( 12185 PWs)   bands (ev):

   -60.5260 -36.7264 -36.6497 -36.5713 -17.5551 -17.3988  -9.7490  -9.7422
    -8.7188  -8.2664  -8.0036  -7.0231  -5.1338  -3.3217  -2.1436  -2.1132
    -1.0066

     occupation numbers 
     1.0000   1.0000   1.0000   1.0000   1.0000   1.0000   1.0000   1.0000
     1.0000   1.0000   1.0000   1.0000   0.0000   0.0000   0.0000   0.0000
     0.0000

          k = 0.2500-0.0481 0.0000 ( 12125 PWs)   bands (ev):

   -60.5398 -36.6223 -36.6078 -36.5504 -18.5545 -17.8629  -9.7199  -8.6079
    -7.9942  -7.3689  -6.9129  -6.2516  -5.4291  -3.1573  -2.8332  -2.8288
    -1.6911

     occupation numbers 
     1.0000   1.0000   1.0000   1.0000   1.0000   1.0000   1.0000   1.0000
     1.0000   1.0000   1.0000   1.0000   0.1091   0.0000   0.0000   0.0000
     0.0000

          k = 0.3333 0.1925 0.0000 ( 12202 PWs)   bands (ev):

   -60.5330 -36.7078 -36.5896 -36.5664 -18.0830 -17.6505  -9.8504  -8.9755
    -8.9251  -7.5745  -6.7670  -6.4634  -5.8368  -3.0236  -2.9064  -2.1507
    -1.3519

     occupation numbers 
     1.0000   1.0000   1.0000   1.0000   1.0000   1.0000   1.0000   1.0000
     1.0000   1.0000   1.0000   1.0000   1.0139   0.0000   0.0000   0.0000
     0.0000

          k = 0.3333 0.2887 0.0000 ( 12184 PWs)   bands (ev):

   -60.5304 -36.7301 -36.5829 -36.5812 -17.8947 -17.5647 -10.0245  -9.2004
    -8.8872  -7.8463  -6.7529  -6.7337  -5.6820  -3.0519  -2.7517  -2.0493
    -1.2396

     occupation numbers 
     1.0000   1.0000   1.0000   1.0000   1.0000   1.0000   1.0000   1.0000
     1.0000   1.0000   1.0000   1.0000   1.0779   0.0000   0.0000   0.0000
     0.0000

          k = 0.3333 0.3849 0.0000 ( 12205 PWs)   bands (ev):

   -60.5279 -36.7372 -36.6114 -36.5762 -17.7005 -17.4719 -10.0056  -9.4947
    -8.7783  -8.0272  -7.4586  -6.8258  -5.4229  -3.0343  -2.5615  -2.0294
    -1.1791

     occupation numbers 
     1.0000   1.0000   1.0000   1.0000   1.0000   1.0000   1.0000   1.0000
     1.0000   1.0000   1.0000   1.0000   0.0960   0.0000   0.0000   0.0000
     0.0000

          k = 0.3333 0.4811 0.0000 ( 12185 PWs)   bands (ev):

   -60.5260 -36.7264 -36.6497 -36.5713 -17.5551 -17.3989  -9.7490  -9.7423
    -8.7188  -8.2663  -8.0035  -7.0232  -5.1338  -3.3217  -2.1436  -2.1132
    -1.0066

     occupation numbers 
     1.0000   1.0000   1.0000   1.0000   1.0000   1.0000   1.0000   1.0000
     1.0000   1.0000   1.0000   1.0000   0.0000   0.0000   0.0000   0.0000
     0.0000

          k = 0.3333 0.5774 0.0000 ( 12162 PWs)   bands (ev):

   -60.5252 -36.7100 -36.6761 -36.5695 -17.5013 -17.3709  -9.8492  -9.4006
    -8.9299  -8.5803  -7.9438  -7.1443  -4.9513  -3.5436  -2.1704  -1.9160
    -0.8996

     occupation numbers 
     1.0000   1.0000   1.0000   1.0000   1.0000   1.0000   1.0000   1.0000
     1.0000   1.0000   1.0000   1.0000   0.0000   0.0000   0.0000   0.0000
     0.0000

          k = 0.3333-0.0962 0.0000 ( 12175 PWs)   bands (ev):

   -60.5348 -36.6804 -36.5945 -36.5669 -18.2171 -17.7094  -9.6200  -8.9898
    -8.6317  -7.6862  -6.7759  -6.5038  -5.6963  -3.1830  -2.8421  -2.4859
    -1.3695

     occupation numbers 
     1.0000   1.0000   1.0000   1.0000   1.0000   1.0000   1.0000   1.0000
     1.0000   1.0000   1.0000   1.0000   1.0830   0.0000   0.0000   0.0000
     0.0000

          k = 0.3333-0.0000 0.0000 ( 12158 PWs)   bands (ev):

   -60.5355 -36.6664 -36.5963 -36.5711 -18.2654 -17.7302  -9.5207  -8.9586
    -8.4206  -7.9028  -6.9790  -6.2981  -5.6213  -3.2835  -2.7971  -2.7151
    -1.3298

     occupation numbers 
     1.0000   1.0000   1.0000   1.0000   1.0000   1.0000   1.0000   1.0000
     1.0000   1.0000   1.0000   1.0000   0.9610   0.0000   0.0000   0.0000
     0.0000

          k = 0.4167 0.2406 0.0000 ( 12212 PWs)   bands (ev):

   -60.5293 -36.7515 -36.5797 -36.5766 -17.7988 -17.5251 -10.2809  -9.3745
    -8.8778  -7.7890  -6.8855  -6.2817  -5.7883  -3.0024  -2.6924  -1.8197
    -1.1896

     occupation numbers 
     1.0000   1.0000   1.0000   1.0000   1.0000   1.0000   1.0000   1.0000
     1.0000   1.0000   1.0000   1.0000   1.0365   0.0000   0.0000   0.0000
     0.0000

          k = 0.4167 0.3368 0.0000 ( 12173 PWs)   bands (ev):

   -60.5278 -36.7586 -36.5894 -36.5762 -17.6918 -17.4752 -10.3243  -9.5258
    -8.8378  -7.9126  -6.8964  -6.6967  -5.5288  -2.9725  -2.5876  -1.6920
    -1.3104

     occupation numbers 
     1.0000   1.0000   1.0000   1.0000   1.0000   1.0000   1.0000   1.0000
     1.0000   1.0000   1.0000   1.0000   0.5066   0.0000   0.0000   0.0000
     0.0000

          k = 0.4167 0.4330 0.0000 ( 12180 PWs)   bands (ev):

   -60.5267 -36.7478 -36.6179 -36.5730 -17.6037 -17.4280 -10.1099  -9.6608
    -8.7808  -7.9947  -7.5079  -6.9527  -5.2891  -3.1082  -2.3545  -1.8409
    -1.2588

     occupation numbers 
     1.0000   1.0000   1.0000   1.0000   1.0000   1.0000   1.0000   1.0000
     1.0000   1.0000   1.0000   1.0000   0.0023   0.0000   0.0000   0.0000
     0.0000

          k = 0.4167 0.5293 0.0000 ( 12185 PWs)   bands (ev):

   -60.5260 -36.7264 -36.6497 -36.5713 -17.5552 -17.3989  -9.7489  -9.7422
    -8.7188  -8.2663  -8.0034  -7.0232  -5.1337  -3.3217  -2.1437  -2.1131
    -1.0066

     occupation numbers 
     1.0000   1.0000   1.0000   1.0000   1.0000   1.0000   1.0000   1.0000
     1.0000   1.0000   1.0000   1.0000   0.0000   0.0000   0.0000   0.0000
     0.0000

          k = 0.4167-0.1443 0.0000 ( 12184 PWs)   bands (ev):

   -60.5304 -36.7301 -36.5829 -36.5812 -17.8947 -17.5647 -10.0244  -9.2003
    -8.8873  -7.8462  -6.7530  -6.7339  -5.6818  -3.0518  -2.7519  -2.0491
    -1.2398

     occupation numbers 
     1.0000   1.0000   1.0000   1.0000   1.0000   1.0000   1.0000   1.0000
     1.0000   1.0000   1.0000   1.0000   1.0779   0.0000   0.0000   0.0000
     0.0000

          k = 0.4167-0.0481 0.0000 ( 12193 PWs)   bands (ev):

   -60.5311 -36.7079 -36.5939 -36.5847 -17.9510 -17.5862  -9.7344  -9.0342
    -8.8728  -8.0449  -7.2540  -6.5459  -5.6068  -3.1485  -2.7337  -2.3923
    -1.1530

     occupation numbers 
     1.0000   1.0000   1.0000   1.0000   1.0000   1.0000   1.0000   1.0000
     1.0000   1.0000   1.0000   1.0000   0.9070   0.0000   0.0000   0.0000
     0.0000

          k =-0.5000-0.2887 0.0000 ( 12206 PWs)   bands (ev):

   -60.5279 -36.7674 -36.5803 -36.5762 -17.6875 -17.4769 -10.4539  -9.5390
    -8.8585  -7.8629  -6.9208  -6.2216  -5.6946  -2.9704  -2.5827  -1.7040
    -1.1390

     occupation numbers 
     1.0000   1.0000   1.0000   1.0000   1.0000   1.0000   1.0000   1.0000
     1.0000   1.0000   1.0000   1.0000   1.0828   0.0000   0.0000   0.0000
     0.0000

          k =-0.5000-0.1925 0.0000 ( 12173 PWs)   bands (ev):

   -60.5278 -36.7586 -36.5894 -36.5762 -17.6919 -17.4752 -10.3243  -9.5258
    -8.8378  -7.9126  -6.8965  -6.6967  -5.5287  -2.9725  -2.5877  -1.6918
    -1.3105

     occupation numbers 
     1.0000   1.0000   1.0000   1.0000   1.0000   1.0000   1.0000   1.0000
     1.0000   1.0000   1.0000   1.0000   0.5062   0.0000   0.0000   0.0000
     0.0000

          k =-0.5000-0.0962 0.0000 ( 12205 PWs)   bands (ev):

   -60.5279 -36.7372 -36.6114 -36.5762 -17.7006 -17.4719 -10.0056  -9.4947
    -8.7783  -8.0272  -7.4587  -6.8258  -5.4227  -3.0343  -2.5617  -2.0292
    -1.1793

     occupation numbers 
     1.0000   1.0000   1.0000   1.0000   1.0000   1.0000   1.0000   1.0000
     1.0000   1.0000   1.0000   1.0000   0.0957   0.0000   0.0000   0.0000
     0.0000

          k =-0.5000 0.0000 0.0000 ( 12184 PWs)   bands (ev):

   -60.5279 -36.7230 -36.6259 -36.5762 -17.7049 -17.4703  -9.7942  -9.4763
    -8.7134  -8.0905  -7.8823  -6.7815  -5.3986  -3.0798  -2.5412  -2.2226
    -1.0576

     occupation numbers 
     1.0000   1.0000   1.0000   1.0000   1.0000   1.0000   1.0000   1.0000
     1.0000   1.0000   1.0000   1.0000   0.0561   0.0000   0.0000   0.0000
     0.0000

     the Fermi energy is    -5.5086 ev

!    total energy              =    -713.10605343 Ry
     total all-electron energy =    -17360.535852 Ry
     estimated scf accuracy    <          2.6E-17 Ry
     smearing contrib. (-TS)   =       0.00010790 Ry
     internal energy E=F+TS    =    -713.10616133 Ry

     The total energy is F=E-TS. E is the sum of the following terms:
     one-electron contribution =   -1628.15522754 Ry
     hartree contribution      =     812.46404987 Ry
     xc contribution           =     -31.41115770 Ry
     ewald contribution        =     691.66568096 Ry
     one-center paw contrib.   =    -557.66950692 Ry
      -> PAW hartree energy AE =      68.30265129 Ry
      -> PAW hartree energy PS =     -67.86729201 Ry
      -> PAW xc energy AE      =    -235.85820643 Ry
      -> PAW xc energy PS      =      16.63709249 Ry
      -> total E_H with PAW    =     812.89940915 Ry
      -> total E_XC with PAW   =    -250.63227164 Ry

     convergence has been achieved in  27 iterations

     Writing all to output data dir ./out/nbse2.save/ :
     XML data file, charge density, pseudopotentials, collected wavefunctions
 
     init_run     :      1.56s CPU      2.46s WALL (       1 calls)
     electrons    :     21.75s CPU     23.84s WALL (       1 calls)

     Called by init_run:
     wfcinit      :      0.24s CPU      0.27s WALL (       1 calls)
     wfcinit:atom :      0.00s CPU      0.00s WALL (       6 calls)
     wfcinit:wfcr :      0.21s CPU      0.24s WALL (       6 calls)
     potinit      :      0.19s CPU      0.21s WALL (       1 calls)
     hinit0       :      0.26s CPU      1.06s WALL (       1 calls)

     Called by electrons:
     c_bands      :     13.15s CPU     13.77s WALL (      28 calls)
     sum_band     :      3.41s CPU      4.06s WALL (      28 calls)
     v_of_rho     :      1.51s CPU      1.59s WALL (      28 calls)
     v_h          :      0.09s CPU      0.09s WALL (      28 calls)
     v_xc         :      1.42s CPU      1.50s WALL (      28 calls)
     newd         :      0.41s CPU      0.89s WALL (      28 calls)
     PAW_pot      :      2.92s CPU      2.94s WALL (      28 calls)
     mix_rho      :      0.23s CPU      0.24s WALL (      28 calls)

     Called by c_bands:
     init_us_2    :      0.24s CPU      0.26s WALL (     342 calls)
     cegterg      :     10.85s CPU     11.29s WALL (     168 calls)

     Called by sum_band:
     sum_band:wei :      0.09s CPU      0.09s WALL (      28 calls)
     sum_band:loo :      2.45s CPU      2.56s WALL (      28 calls)
     sum_band:buf :      0.01s CPU      0.01s WALL (     168 calls)
     sum_band:ini :      0.13s CPU      0.13s WALL (     168 calls)
     sum_band:cal :      0.13s CPU      0.13s WALL (     168 calls)
     sum_band:bec :      0.02s CPU      0.02s WALL (     168 calls)
     addusdens    :      0.33s CPU      0.85s WALL (      28 calls)
                                        0.00s GPU  (      28 calls)
     addusd:skk   :      0.00s CPU      0.00s WALL (      56 calls)
                                        0.00s GPU  (      56 calls)

     Called by *egterg:
     cdiaghg      :      0.73s CPU      0.75s WALL (     445 calls)
     cegterg:over :      0.37s CPU      0.38s WALL (     283 calls)
     cegterg:upda :      0.13s CPU      0.13s WALL (     283 calls)
     cegterg:last :      0.18s CPU      0.18s WALL (     255 calls)
     h_psi        :      9.03s CPU      9.42s WALL (     457 calls)
     s_psi        :      0.22s CPU      0.23s WALL (     457 calls)
     g_psi        :      0.02s CPU      0.02s WALL (     283 calls)

     Called by h_psi:
     h_psi:calbec :      0.28s CPU      0.30s WALL (     457 calls)
     vloc_psi     :      8.47s CPU      8.83s WALL (     457 calls)
                                        0.00s GPU  (     457 calls)
     add_vuspsi   :      0.23s CPU      0.25s WALL (     457 calls)

     General routines
     calbec       :      0.39s CPU      0.42s WALL (     625 calls)
     fft          :      0.89s CPU      0.94s WALL (     363 calls)
     ffts         :      0.07s CPU      0.08s WALL (      56 calls)
     fftw         :      9.35s CPU      9.73s WALL (   16010 calls)
     interpolate  :      0.13s CPU      0.14s WALL (      28 calls)
 
     Parallel routines

     PAW routines
     PAW_pot      :      2.92s CPU      2.94s WALL (      28 calls)
     PAW_symme    :      0.04s CPU      0.04s WALL (      56 calls)
 
     PWSCF        :     24.45s CPU     28.14s WALL

 
   This run was terminated on:   1: 4: 4  21Jun2026            

=------------------------------------------------------------------------------=
   JOB DONE.
=------------------------------------------------------------------------------=
