
     Program PHONON v.7.5 starts on 21Jun2026 at  1: 4: 9 

     This program is part of the open-source Quantum ESPRESSO suite
     for quantum simulation of materials; please cite
         "P. Giannozzi et al., J. Phys.:Condens. Matter 21 395502 (2009);
         "P. Giannozzi et al., J. Phys.:Condens. Matter 29 465901 (2017);
         "P. Giannozzi et al., J. Chem. Phys. 152 154105 (2020);
          URL http://www.quantum-espresso.org", 
     in publications or presentations arising from this work. More details at
     http://www.quantum-espresso.org/quote

     Parallel version (MPI), running on   136 processors

     MPI processes distributed on     2 nodes
     74129 MiB available memory on the printing compute node when the environment starts
 
     Waiting for input...
     Reading input from standard input

     Reading xml data from directory:

     ./out/nbse2.save/
 
     K-points division:     npool     =       8
     R & G space division:  proc/nbgrp/npool/nimage =      17
     Subspace diagonalization in iterative solution of the eigenvalue problem:
     a serial algorithm will be used

     file Nb.pbe-spn-kjpaw_psl.1.0.0.UPF: wavefunction(s)  4S 4P 4D renormalized
     file Se.pbe-n-kjpaw_psl.1.0.0.UPF: wavefunction(s)  4S renormalized

     IMPORTANT: XC functional enforced from input :
     Exchange-correlation= PBE
                           (   1   4   3   4   0   0   0)
     Any further DFT definition will be discarded
     Please, verify this is what you really want

 
     Parallelization info
     --------------------
     sticks:   dense  smooth     PW     G-vecs:    dense   smooth      PW
     Min          83      42     12                16187     5716     905
     Max          84      43     14                16218     5732     918
     Sum        1417     721    211               275365    97333   15489
 
     Using Slab Decomposition
 
 ----2D----2D----2D----2D----2D----2D----2D----2D----2D----2D----2D----2D
  The code is running with the 2D cutoff
  Please refer to:
  Sohier, T., Calandra, M., & Mauri, F. (2017), 
  Density functional perturbation theory for gated two-dimensional heterostructu
 res:
  Theoretical developments and application to flexural phonons in graphene.
  Physical Review B, 96(7), 75448. https://doi.org/10.1103/PhysRevB.96.075448
 ----2D----2D----2D----2D----2D----2D----2D----2D----2D----2D----2D----2D

     negative rho (up, down):  1.480E-04 0.000E+00
     Reading collected, re-writing distributed wavefunctions in ./out/


     Dynamical matrices for ( 6, 6, 1)  uniform grid of q-points
     (  13 q-points):
       N         xq(1)         xq(2)         xq(3) 
       1   0.000000000   0.000000000   0.000000000
       2   0.000000000   0.192458150   0.000000000
       3   0.000000000   0.384916299   0.000000000
       4   0.000000000  -0.577374449   0.000000000
       5   0.166666667   0.096229075   0.000000000
       6   0.166666667   0.288687224   0.000000000
       7   0.166666667   0.481145374   0.000000000
       8   0.333333333   0.192458150   0.000000000
       9   0.333333333   0.384916299   0.000000000
      10   0.333333333   0.577374449   0.000000000
      11   0.333333333  -0.000000000   0.000000000
      12  -0.500000000  -0.288687224   0.000000000
      13  -0.500000000  -0.096229075   0.000000000

     Number and degeneracy of irreps per q-point
       N         xq(1)         xq(2)         xq(3)   N irreps
       1   0.000000000   0.000000000   0.000000000       9
     No degeneracy
       2   0.000000000   0.192458150   0.000000000       9
     No degeneracy
       3   0.000000000   0.384916299   0.000000000       9
     No degeneracy
       4   0.000000000  -0.577374449   0.000000000       9
     No degeneracy
       5   0.166666667   0.096229075   0.000000000       9
     No degeneracy
       6   0.166666667   0.288687224   0.000000000       9
     No degeneracy
       7   0.166666667   0.481145374   0.000000000       9
     No degeneracy
       8   0.333333333   0.192458150   0.000000000       9
     No degeneracy
       9   0.333333333   0.384916299   0.000000000       9
     No degeneracy
      10   0.333333333   0.577374449   0.000000000       9
     No degeneracy
      11   0.333333333  -0.000000000   0.000000000       9
     No degeneracy
      12  -0.500000000  -0.288687224   0.000000000       9
     No degeneracy
      13  -0.500000000  -0.096229075   0.000000000       9
     No degeneracy

     Saving dvscf to file. Distribute only q points, not irreducible representations.

     Calculation of q =    0.0000000   0.0000000   0.0000000

     phonon dispersion of undistorted 1H-NbSe2 (metal, no LO-TO)                

     bravais-lattice index     =            0
     lattice parameter (alat)  =       6.5628  a.u.
     unit-cell volume          =    1550.6296 (a.u.)^3
     number of atoms/cell      =            3
     number of atomic types    =            2
     kinetic-energy cut-off    =      60.0000  Ry
     charge density cut-off    =     480.0000  Ry
     convergence threshold     =      1.0E-16
     beta                      =       0.7000
     number of iterations used =           12
     Exchange-correlation= PBE
                           (   1   4   3   4   0   0   0)


     celldm(1)=    6.56277  celldm(2)=    0.00000  celldm(3)=    0.00000
     celldm(4)=    0.00000  celldm(5)=    0.00000  celldm(6)=    0.00000

     crystal axes: (cart. coord. in units of alat)
               a(1) = (  1.0000  0.0000  0.0000 )  
               a(2) = ( -0.5000  0.8660  0.0000 )  
               a(3) = (  0.0000  0.0000  6.3348 )  

     reciprocal axes: (cart. coord. in units 2 pi/alat)
               b(1) = (  1.0000  0.5774  0.0000 )  
               b(2) = (  0.0000  1.1547  0.0000 )  
               b(3) = (  0.0000  0.0000  0.1579 )  


     Atoms inside the unit cell: 

     Cartesian axes

     site n.  atom      mass           positions (alat units)
        1  Nb     92.9064   tau(    1) = (   -0.00000    0.57733    0.00000  )
        2  Se     78.9710   tau(    2) = (    0.50000    0.28866    0.48401  )
        3  Se     78.9710   tau(    3) = (    0.50000    0.28866   -0.48401  )

     Computing dynamical matrix for 
                    q = (   0.0000000   0.0000000   0.0000000 )
 
      5 Sym.Ops. (with q -> -q+G )


     G cutoff =  523.6675  (  16218 G-vectors)     FFT grid: ( 45, 45,300)
     G cutoff =  261.8337  (   5718 G-vectors)  smooth grid: ( 36, 36,216)

     number of k points=    43  Marzari-Vanderbilt smearing, width (Ry)=  0.0100

     PseudoPot. # 1 for Nb read from file:
     ../pseudos/Nb.pbe-spn-kjpaw_psl.1.0.0.UPF
     MD5 check sum: dcedcbb129af9a7271e4748e5febedb1
     Pseudo is Projector augmented-wave + core cor, Zval = 13.0
     Generated using &quot;atomic&quot; code by A. Dal Corso  v.6.2.2
     Shape of augmentation charge: PSQ
     Using radial grid of 1227 points,  6 beta functions with: 
                l(1) =   0
                l(2) =   0
                l(3) =   1
                l(4) =   1
                l(5) =   2
                l(6) =   2
     Q(r) pseudized with 0 coefficients 


     PseudoPot. # 2 for Se read from file:
     ../pseudos/Se.pbe-n-kjpaw_psl.1.0.0.UPF
     MD5 check sum: 12232cb78b362a7b0fca8da9cb95fd5e
     Pseudo is Projector augmented-wave + core cor, Zval =  6.0
     Generated using &quot;atomic&quot; code by A. Dal Corso  v.6.3
     Shape of augmentation charge: PSQ
     Using radial grid of 1211 points,  4 beta functions with: 
                l(1) =   0
                l(2) =   0
                l(3) =   1
                l(4) =   1
     Q(r) pseudized with 0 coefficients 


     Mode symmetry, C_2v (mm2)  point group:


     Atomic displacements:
     There are    9 irreducible representations

     Representation     1      1 modes -  To be done

     Representation     2      1 modes -  To be done

     Representation     3      1 modes -  To be done

     Representation     4      1 modes -  To be done

     Representation     5      1 modes -  To be done

     Representation     6      1 modes -  To be done

     Representation     7      1 modes -  To be done

     Representation     8      1 modes -  To be done

     Representation     9      1 modes -  To be done



     Alpha used in Ewald sum =   2.8000

     negative rho (up, down):  1.480E-04 0.000E+00
     PHONON       :      8.71s CPU     12.23s WALL



     Representation #   1 mode #   1

     Self-consistent Calculation
 
     Pert. #  1: Fermi energy shift (Ry) =    -1.5789E+00     0.0000E+00

      iter #   1 total cpu time :    16.4 secs   av.it.:   7.4
      thresh= 1.000E-02 alpha_mix =  0.700 |ddv_scf|^2 =  1.008E-05
 
     Pert. #  1: Fermi energy shift (Ry) =     4.5388E+00     0.0000E+00

      iter #   2 total cpu time :    20.9 secs   av.it.:  14.6
      thresh= 3.175E-04 alpha_mix =  0.700 |ddv_scf|^2 =  1.099E-04
 
     Pert. #  1: Fermi energy shift (Ry) =    -3.8037E-01     0.0000E+00

      iter #   3 total cpu time :    24.5 secs   av.it.:  12.7
      thresh= 1.048E-03 alpha_mix =  0.700 |ddv_scf|^2 =  1.342E-06
 
     Pert. #  1: Fermi energy shift (Ry) =     2.1766E-02     0.0000E+00

      iter #   4 total cpu time :    28.3 secs   av.it.:  13.1
      thresh= 1.158E-04 alpha_mix =  0.700 |ddv_scf|^2 =  5.442E-09
 
     Pert. #  1: Fermi energy shift (Ry) =    -3.2606E-02     0.0000E+00

      iter #   5 total cpu time :    32.2 secs   av.it.:  14.3
      thresh= 7.377E-06 alpha_mix =  0.700 |ddv_scf|^2 =  4.345E-09
 
     Pert. #  1: Fermi energy shift (Ry) =    -1.7692E-02     0.0000E+00

      iter #   6 total cpu time :    35.9 secs   av.it.:  13.6
      thresh= 6.592E-06 alpha_mix =  0.700 |ddv_scf|^2 =  6.271E-12
 
     Pert. #  1: Fermi energy shift (Ry) =    -1.8732E-02     0.0000E+00

      iter #   7 total cpu time :    39.7 secs   av.it.:  15.0
      thresh= 2.504E-07 alpha_mix =  0.700 |ddv_scf|^2 =  4.894E-13
 
     Pert. #  1: Fermi energy shift (Ry) =    -1.9031E-02     0.0000E+00

      iter #   8 total cpu time :    43.4 secs   av.it.:  13.6
      thresh= 6.995E-08 alpha_mix =  0.700 |ddv_scf|^2 =  2.293E-14
 
     Pert. #  1: Fermi energy shift (Ry) =    -1.9115E-02     0.0000E+00

      iter #   9 total cpu time :    47.2 secs   av.it.:  13.9
      thresh= 1.514E-08 alpha_mix =  0.700 |ddv_scf|^2 =  1.190E-15
 
     Pert. #  1: Fermi energy shift (Ry) =    -1.9131E-02     0.0000E+00

      iter #  10 total cpu time :    52.8 secs   av.it.:  14.5
      thresh= 3.450E-09 alpha_mix =  0.700 |ddv_scf|^2 =  9.591E-18

     End of self-consistent calculation

     Convergence has been achieved 


     Representation #   2 mode #   2

     Self-consistent Calculation
 
     Pert. #  1: Fermi energy shift (Ry) =     1.5889E+00    -2.7105E-20

      iter #   1 total cpu time :    56.5 secs   av.it.:   7.5
      thresh= 1.000E-02 alpha_mix =  0.700 |ddv_scf|^2 =  1.019E-05
 
     Pert. #  1: Fermi energy shift (Ry) =    -4.5672E+00    -3.9705E-23

      iter #   2 total cpu time :    60.7 secs   av.it.:  14.6
      thresh= 3.193E-04 alpha_mix =  0.700 |ddv_scf|^2 =  1.113E-04
 
     Pert. #  1: Fermi energy shift (Ry) =     3.7988E-01     7.9409E-23

      iter #   3 total cpu time :    64.8 secs   av.it.:  12.7
      thresh= 1.055E-03 alpha_mix =  0.700 |ddv_scf|^2 =  1.343E-06
 
     Pert. #  1: Fermi energy shift (Ry) =    -1.7970E-02     1.9852E-23

      iter #   4 total cpu time :    68.5 secs   av.it.:  13.1
      thresh= 1.159E-04 alpha_mix =  0.700 |ddv_scf|^2 =  4.123E-09
 
     Pert. #  1: Fermi energy shift (Ry) =     3.5187E-02     2.8951E-24

      iter #   5 total cpu time :    72.5 secs   av.it.:  14.5
      thresh= 6.421E-06 alpha_mix =  0.700 |ddv_scf|^2 =  5.352E-09
 
     Pert. #  1: Fermi energy shift (Ry) =     1.7911E-02    -3.3087E-24

      iter #   6 total cpu time :    76.9 secs   av.it.:  13.5
      thresh= 7.315E-06 alpha_mix =  0.700 |ddv_scf|^2 =  6.515E-12
 
     Pert. #  1: Fermi energy shift (Ry) =     1.8951E-02     2.3264E-25

      iter #   7 total cpu time :    81.0 secs   av.it.:  15.1
      thresh= 2.552E-07 alpha_mix =  0.700 |ddv_scf|^2 =  3.206E-13
 
     Pert. #  1: Fermi energy shift (Ry) =     1.9196E-02    -6.4623E-26

      iter #   8 total cpu time :    85.6 secs   av.it.:  13.9
      thresh= 5.662E-08 alpha_mix =  0.700 |ddv_scf|^2 =  9.782E-15
 
     Pert. #  1: Fermi energy shift (Ry) =     1.9251E-02     1.1309E-26

      iter #   9 total cpu time :    89.8 secs   av.it.:  14.4
      thresh= 9.890E-09 alpha_mix =  0.700 |ddv_scf|^2 =  8.709E-16
 
     Pert. #  1: Fermi energy shift (Ry) =     1.9265E-02    -1.2117E-27

      iter #  10 total cpu time :    93.8 secs   av.it.:  14.5
      thresh= 2.951E-09 alpha_mix =  0.700 |ddv_scf|^2 =  1.091E-17

     End of self-consistent calculation

     Convergence has been achieved 


     Representation #   3 mode #   3

     Self-consistent Calculation
 
     Pert. #  1: Fermi energy shift (Ry) =    -4.1626E-05    -3.3881E-21

      iter #   1 total cpu time :    97.5 secs   av.it.:   8.3
      thresh= 1.000E-02 alpha_mix =  0.700 |ddv_scf|^2 =  3.574E-07
 
     Pert. #  1: Fermi energy shift (Ry) =     8.6470E-04     6.6174E-24

      iter #   2 total cpu time :   101.4 secs   av.it.:  15.7
      thresh= 5.978E-05 alpha_mix =  0.700 |ddv_scf|^2 =  3.214E-08
 
     Pert. #  1: Fermi energy shift (Ry) =    -2.6194E-03    -3.3087E-24

      iter #   3 total cpu time :   105.6 secs   av.it.:  15.7
      thresh= 1.793E-05 alpha_mix =  0.700 |ddv_scf|^2 =  2.637E-09
 
     Pert. #  1: Fermi energy shift (Ry) =     1.2583E-02     1.6544E-24

      iter #   4 total cpu time :   111.4 secs   av.it.:  15.2
      thresh= 5.135E-06 alpha_mix =  0.700 |ddv_scf|^2 =  9.097E-10
 
     Pert. #  1: Fermi energy shift (Ry) =    -5.6311E-03     1.0340E-25

      iter #   5 total cpu time :   115.2 secs   av.it.:  13.5
      thresh= 3.016E-06 alpha_mix =  0.700 |ddv_scf|^2 =  1.873E-10
 
     Pert. #  1: Fermi energy shift (Ry) =     8.8468E-05    -4.1359E-25

      iter #   6 total cpu time :   119.2 secs   av.it.:  14.1
      thresh= 1.369E-06 alpha_mix =  0.700 |ddv_scf|^2 =  2.135E-13
 
     Pert. #  1: Fermi energy shift (Ry) =    -5.6028E-05     6.4623E-27

      iter #   7 total cpu time :   123.6 secs   av.it.:  15.8
      thresh= 4.621E-08 alpha_mix =  0.700 |ddv_scf|^2 =  2.907E-14
 
     Pert. #  1: Fermi energy shift (Ry) =     4.7474E-05     2.0195E-28

      iter #   8 total cpu time :   127.4 secs   av.it.:  14.5
      thresh= 1.705E-08 alpha_mix =  0.700 |ddv_scf|^2 =  2.348E-14
 
     Pert. #  1: Fermi energy shift (Ry) =    -1.5128E-05    -4.0390E-28

      iter #   9 total cpu time :   132.2 secs   av.it.:  13.7
      thresh= 1.532E-08 alpha_mix =  0.700 |ddv_scf|^2 =  1.418E-15
 
     Pert. #  1: Fermi energy shift (Ry) =    -2.6527E-06    -2.0195E-28

      iter #  10 total cpu time :   136.6 secs   av.it.:  13.7
      thresh= 3.766E-09 alpha_mix =  0.700 |ddv_scf|^2 =  1.026E-19

     End of self-consistent calculation

     Convergence has been achieved 


     Representation #   4 mode #   4

     Self-consistent Calculation
 
     Pert. #  1: Fermi energy shift (Ry) =     0.0000E+00     0.0000E+00

      iter #   1 total cpu time :   139.8 secs   av.it.:   5.9
      thresh= 1.000E-02 alpha_mix =  0.700 |ddv_scf|^2 =  8.653E-09
 
     Pert. #  1: Fermi energy shift (Ry) =     0.0000E+00     0.0000E+00

      iter #   2 total cpu time :   143.7 secs   av.it.:  15.1
      thresh= 9.302E-06 alpha_mix =  0.700 |ddv_scf|^2 =  4.321E-10
 
     Pert. #  1: Fermi energy shift (Ry) =     0.0000E+00     0.0000E+00

      iter #   3 total cpu time :   147.5 secs   av.it.:  15.0
      thresh= 2.079E-06 alpha_mix =  0.700 |ddv_scf|^2 =  3.274E-11
 
     Pert. #  1: Fermi energy shift (Ry) =     0.0000E+00     0.0000E+00

      iter #   4 total cpu time :   151.3 secs   av.it.:  14.3
      thresh= 5.722E-07 alpha_mix =  0.700 |ddv_scf|^2 =  9.975E-14
 
     Pert. #  1: Fermi energy shift (Ry) =     0.0000E+00     0.0000E+00

      iter #   5 total cpu time :   155.1 secs   av.it.:  14.0
      thresh= 3.158E-08 alpha_mix =  0.700 |ddv_scf|^2 =  1.067E-15
 
     Pert. #  1: Fermi energy shift (Ry) =     0.0000E+00     0.0000E+00

      iter #   6 total cpu time :   158.9 secs   av.it.:  14.5
      thresh= 3.266E-09 alpha_mix =  0.700 |ddv_scf|^2 =  9.594E-17

     End of self-consistent calculation

     Convergence has been achieved 


     Representation #   5 mode #   5

     Self-consistent Calculation
 
     Pert. #  1: Fermi energy shift (Ry) =     0.0000E+00     0.0000E+00

      iter #   1 total cpu time :   162.3 secs   av.it.:   6.3
      thresh= 1.000E-02 alpha_mix =  0.700 |ddv_scf|^2 =  1.081E-08
 
     Pert. #  1: Fermi energy shift (Ry) =     0.0000E+00     0.0000E+00

      iter #   2 total cpu time :   167.8 secs   av.it.:  15.9
      thresh= 1.039E-05 alpha_mix =  0.700 |ddv_scf|^2 =  8.035E-10
 
     Pert. #  1: Fermi energy shift (Ry) =     0.0000E+00     0.0000E+00

      iter #   3 total cpu time :   171.7 secs   av.it.:  15.9
      thresh= 2.835E-06 alpha_mix =  0.700 |ddv_scf|^2 =  5.148E-11
 
     Pert. #  1: Fermi energy shift (Ry) =     0.0000E+00     0.0000E+00

      iter #   4 total cpu time :   175.6 secs   av.it.:  15.1
      thresh= 7.175E-07 alpha_mix =  0.700 |ddv_scf|^2 =  7.202E-13
 
     Pert. #  1: Fermi energy shift (Ry) =     0.0000E+00     0.0000E+00

      iter #   5 total cpu time :   179.6 secs   av.it.:  15.5
      thresh= 8.486E-08 alpha_mix =  0.700 |ddv_scf|^2 =  3.085E-14
 
     Pert. #  1: Fermi energy shift (Ry) =     0.0000E+00     0.0000E+00

      iter #   6 total cpu time :   184.1 secs   av.it.:  15.1
      thresh= 1.756E-08 alpha_mix =  0.700 |ddv_scf|^2 =  3.653E-16
 
     Pert. #  1: Fermi energy shift (Ry) =     0.0000E+00     0.0000E+00

      iter #   7 total cpu time :   188.7 secs   av.it.:  15.3
      thresh= 1.911E-09 alpha_mix =  0.700 |ddv_scf|^2 =  2.214E-17

     End of self-consistent calculation

     Convergence has been achieved 


     Representation #   6 mode #   6

     Self-consistent Calculation
 
     Pert. #  1: Fermi energy shift (Ry) =    -3.4694E-18     0.0000E+00

      iter #   1 total cpu time :   193.3 secs   av.it.:   8.3
      thresh= 1.000E-02 alpha_mix =  0.700 |ddv_scf|^2 =  3.405E-07
 
     Pert. #  1: Fermi energy shift (Ry) =    -1.7347E-18     0.0000E+00

      iter #   2 total cpu time :   197.3 secs   av.it.:  15.5
      thresh= 5.835E-05 alpha_mix =  0.700 |ddv_scf|^2 =  3.114E-08
 
     Pert. #  1: Fermi energy shift (Ry) =    -1.7347E-18     0.0000E+00

      iter #   3 total cpu time :   201.1 secs   av.it.:  15.5
      thresh= 1.765E-05 alpha_mix =  0.700 |ddv_scf|^2 =  2.246E-09
 
     Pert. #  1: Fermi energy shift (Ry) =    -1.7347E-18     0.0000E+00

      iter #   4 total cpu time :   205.2 secs   av.it.:  14.8
      thresh= 4.740E-06 alpha_mix =  0.700 |ddv_scf|^2 =  8.966E-12
 
     Pert. #  1: Fermi energy shift (Ry) =    -1.7347E-18     0.0000E+00

      iter #   5 total cpu time :   209.2 secs   av.it.:  16.0
      thresh= 2.994E-07 alpha_mix =  0.700 |ddv_scf|^2 =  1.464E-13
 
     Pert. #  1: Fermi energy shift (Ry) =    -1.7347E-18     0.0000E+00

      iter #   6 total cpu time :   213.2 secs   av.it.:  15.9
      thresh= 3.826E-08 alpha_mix =  0.700 |ddv_scf|^2 =  1.950E-15
 
     Pert. #  1: Fermi energy shift (Ry) =    -1.7347E-18     0.0000E+00

      iter #   7 total cpu time :   217.2 secs   av.it.:  14.9
      thresh= 4.416E-09 alpha_mix =  0.700 |ddv_scf|^2 =  7.184E-17

     End of self-consistent calculation

     Convergence has been achieved 


     Representation #   7 mode #   7

     Self-consistent Calculation
 
     Pert. #  1: Fermi energy shift (Ry) =     0.0000E+00     0.0000E+00

      iter #   1 total cpu time :   222.1 secs   av.it.:   7.4
      thresh= 1.000E-02 alpha_mix =  0.700 |ddv_scf|^2 =  2.189E-04
 
     Pert. #  1: Fermi energy shift (Ry) =     0.0000E+00     0.0000E+00

      iter #   2 total cpu time :   225.8 secs   av.it.:  13.1
      thresh= 1.479E-03 alpha_mix =  0.700 |ddv_scf|^2 =  1.288E-02
 
     Pert. #  1: Fermi energy shift (Ry) =     0.0000E+00     0.0000E+00

      iter #   3 total cpu time :   228.8 secs   av.it.:  10.0
      thresh= 1.000E-02 alpha_mix =  0.700 |ddv_scf|^2 =  1.221E-05
 
     Pert. #  1: Fermi energy shift (Ry) =     0.0000E+00     0.0000E+00

      iter #   4 total cpu time :   232.1 secs   av.it.:  11.3
      thresh= 3.494E-04 alpha_mix =  0.700 |ddv_scf|^2 =  2.856E-06
 
     Pert. #  1: Fermi energy shift (Ry) =     0.0000E+00     0.0000E+00

      iter #   5 total cpu time :   235.6 secs   av.it.:  10.9
      thresh= 1.690E-04 alpha_mix =  0.700 |ddv_scf|^2 =  6.464E-09
 
     Pert. #  1: Fermi energy shift (Ry) =     0.0000E+00     0.0000E+00

      iter #   6 total cpu time :   239.0 secs   av.it.:  11.5
      thresh= 8.040E-06 alpha_mix =  0.700 |ddv_scf|^2 =  1.086E-10
 
     Pert. #  1: Fermi energy shift (Ry) =     0.0000E+00     0.0000E+00

      iter #   7 total cpu time :   242.7 secs   av.it.:  11.8
      thresh= 1.042E-06 alpha_mix =  0.700 |ddv_scf|^2 =  1.748E-11
 
     Pert. #  1: Fermi energy shift (Ry) =     0.0000E+00     0.0000E+00

      iter #   8 total cpu time :   245.9 secs   av.it.:  10.9
      thresh= 4.181E-07 alpha_mix =  0.700 |ddv_scf|^2 =  6.330E-13
 
     Pert. #  1: Fermi energy shift (Ry) =     0.0000E+00     0.0000E+00

      iter #   9 total cpu time :   249.0 secs   av.it.:  10.5
      thresh= 7.956E-08 alpha_mix =  0.700 |ddv_scf|^2 =  1.017E-14
 
     Pert. #  1: Fermi energy shift (Ry) =     0.0000E+00     0.0000E+00

      iter #  10 total cpu time :   252.5 secs   av.it.:  11.1
      thresh= 1.008E-08 alpha_mix =  0.700 |ddv_scf|^2 =  3.493E-17

     End of self-consistent calculation

     Convergence has been achieved 


     Representation #   8 mode #   8

     Self-consistent Calculation
 
     Pert. #  1: Fermi energy shift (Ry) =     0.0000E+00     0.0000E+00

      iter #   1 total cpu time :   256.7 secs   av.it.:   9.3
      thresh= 1.000E-02 alpha_mix =  0.700 |ddv_scf|^2 =  1.182E-03
 
     Pert. #  1: Fermi energy shift (Ry) =     0.0000E+00     0.0000E+00

      iter #   2 total cpu time :   260.2 secs   av.it.:  13.1
      thresh= 3.438E-03 alpha_mix =  0.700 |ddv_scf|^2 =  7.755E-02
 
     Pert. #  1: Fermi energy shift (Ry) =     0.0000E+00     0.0000E+00

      iter #   3 total cpu time :   264.2 secs   av.it.:  11.4
      thresh= 1.000E-02 alpha_mix =  0.700 |ddv_scf|^2 =  1.429E-05
 
     Pert. #  1: Fermi energy shift (Ry) =     0.0000E+00     0.0000E+00

      iter #   4 total cpu time :   268.4 secs   av.it.:  12.4
      thresh= 3.780E-04 alpha_mix =  0.700 |ddv_scf|^2 =  1.148E-05
 
     Pert. #  1: Fermi energy shift (Ry) =     0.0000E+00     0.0000E+00

      iter #   5 total cpu time :   271.9 secs   av.it.:  11.1
      thresh= 3.389E-04 alpha_mix =  0.700 |ddv_scf|^2 =  9.071E-08
 
     Pert. #  1: Fermi energy shift (Ry) =     0.0000E+00     0.0000E+00

      iter #   6 total cpu time :   275.6 secs   av.it.:  11.0
      thresh= 3.012E-05 alpha_mix =  0.700 |ddv_scf|^2 =  2.892E-09
 
     Pert. #  1: Fermi energy shift (Ry) =     0.0000E+00     0.0000E+00

      iter #   7 total cpu time :   279.7 secs   av.it.:  12.2
      thresh= 5.378E-06 alpha_mix =  0.700 |ddv_scf|^2 =  5.936E-11
 
     Pert. #  1: Fermi energy shift (Ry) =     0.0000E+00     0.0000E+00

      iter #   8 total cpu time :   283.0 secs   av.it.:  11.4
      thresh= 7.704E-07 alpha_mix =  0.700 |ddv_scf|^2 =  1.040E-13
 
     Pert. #  1: Fermi energy shift (Ry) =     0.0000E+00     0.0000E+00

      iter #   9 total cpu time :   286.4 secs   av.it.:  11.8
      thresh= 3.224E-08 alpha_mix =  0.700 |ddv_scf|^2 =  7.023E-15
 
     Pert. #  1: Fermi energy shift (Ry) =     0.0000E+00     0.0000E+00

      iter #  10 total cpu time :   289.7 secs   av.it.:  10.6
      thresh= 8.380E-09 alpha_mix =  0.700 |ddv_scf|^2 =  2.519E-15
 
     Pert. #  1: Fermi energy shift (Ry) =     0.0000E+00     0.0000E+00

      iter #  11 total cpu time :   293.1 secs   av.it.:  10.6
      thresh= 5.019E-09 alpha_mix =  0.700 |ddv_scf|^2 =  9.188E-19

     End of self-consistent calculation

     Convergence has been achieved 


     Representation #   9 mode #   9

     Self-consistent Calculation
 
     Pert. #  1: Fermi energy shift (Ry) =     0.0000E+00     0.0000E+00

      iter #   1 total cpu time :   296.4 secs   av.it.:   6.6
      thresh= 1.000E-02 alpha_mix =  0.700 |ddv_scf|^2 =  1.983E-05
 
     Pert. #  1: Fermi energy shift (Ry) =     0.0000E+00     0.0000E+00

      iter #   2 total cpu time :   300.3 secs   av.it.:  13.3
      thresh= 4.453E-04 alpha_mix =  0.700 |ddv_scf|^2 =  1.167E-03
 
     Pert. #  1: Fermi energy shift (Ry) =     0.0000E+00     0.0000E+00

      iter #   3 total cpu time :   303.8 secs   av.it.:   9.8
      thresh= 3.416E-03 alpha_mix =  0.700 |ddv_scf|^2 =  1.119E-06
 
     Pert. #  1: Fermi energy shift (Ry) =     0.0000E+00     0.0000E+00

      iter #   4 total cpu time :   307.4 secs   av.it.:  11.6
      thresh= 1.058E-04 alpha_mix =  0.700 |ddv_scf|^2 =  2.621E-07
 
     Pert. #  1: Fermi energy shift (Ry) =     0.0000E+00     0.0000E+00

      iter #   5 total cpu time :   310.7 secs   av.it.:  11.0
      thresh= 5.119E-05 alpha_mix =  0.700 |ddv_scf|^2 =  1.030E-09
 
     Pert. #  1: Fermi energy shift (Ry) =     0.0000E+00     0.0000E+00

      iter #   6 total cpu time :   314.1 secs   av.it.:  11.9
      thresh= 3.210E-06 alpha_mix =  0.700 |ddv_scf|^2 =  8.025E-12
 
     Pert. #  1: Fermi energy shift (Ry) =     0.0000E+00     0.0000E+00

      iter #   7 total cpu time :   317.9 secs   av.it.:  13.4
      thresh= 2.833E-07 alpha_mix =  0.700 |ddv_scf|^2 =  4.669E-13
 
     Pert. #  1: Fermi energy shift (Ry) =     0.0000E+00     0.0000E+00

      iter #   8 total cpu time :   321.7 secs   av.it.:  12.2
      thresh= 6.833E-08 alpha_mix =  0.700 |ddv_scf|^2 =  7.313E-14
 
     Pert. #  1: Fermi energy shift (Ry) =     0.0000E+00     0.0000E+00

      iter #   9 total cpu time :   326.0 secs   av.it.:  11.0
      thresh= 2.704E-08 alpha_mix =  0.700 |ddv_scf|^2 =  1.008E-15
 
     Pert. #  1: Fermi energy shift (Ry) =     0.0000E+00     0.0000E+00

      iter #  10 total cpu time :   330.0 secs   av.it.:  11.8
      thresh= 3.174E-09 alpha_mix =  0.700 |ddv_scf|^2 =  7.581E-17

     End of self-consistent calculation

     Convergence has been achieved 
 
     Number of q in the star =    1
     List of q in the star:
          1   0.000000000   0.000000000   0.000000000

     Diagonalizing the dynamical matrix

     q = (    0.000000000   0.000000000   0.000000000 ) 

 **************************************************************************
     freq (    1) =      -0.147068 [THz] =      -4.905651 [cm-1]
     freq (    2) =      -0.116879 [THz] =      -3.898660 [cm-1]
     freq (    3) =      -0.075754 [THz] =      -2.526870 [cm-1]
     freq (    4) =       3.754265 [THz] =     125.228787 [cm-1]
     freq (    5) =       3.754609 [THz] =     125.240269 [cm-1]
     freq (    6) =       6.611428 [THz] =     220.533511 [cm-1]
     freq (    7) =       6.884647 [THz] =     229.647093 [cm-1]
     freq (    8) =       6.885705 [THz] =     229.682382 [cm-1]
     freq (    9) =       8.611892 [THz] =     287.261793 [cm-1]
 **************************************************************************

     Mode symmetry, C_2v (mm2)  point group:

     freq (   1-   1) =         -4.9  [cm-1]   --> B_2  D_4  S_4   I+R
     freq (   2-   2) =         -3.9  [cm-1]   --> B_1  D_3  S_3   I+R
     freq (   3-   3) =         -2.5  [cm-1]   --> A_1  D_1  S_1   I+R
     freq (   4-   4) =        125.2  [cm-1]   --> A_2  D_2  S_2   R  
     freq (   5-   5) =        125.2  [cm-1]   --> B_2  D_4  S_4   I+R
     freq (   6-   6) =        220.5  [cm-1]   --> A_1  D_1  S_1   I+R
     freq (   7-   7) =        229.6  [cm-1]   --> A_1  D_1  S_1   I+R
     freq (   8-   8) =        229.7  [cm-1]   --> B_1  D_3  S_3   I+R
     freq (   9-   9) =        287.3  [cm-1]   --> B_2  D_4  S_4   I+R

     Calculation of q =    0.0000000   0.1924581   0.0000000
 
     Parallelization info
     --------------------
     sticks:   dense  smooth     PW     G-vecs:    dense   smooth      PW
     Min          83      42     12                16187     5716     952
     Max          84      43     13                16218     5732     977
     Sum        1417     721    211               275365    97333   16343
 
     Using Slab Decomposition
 

     Title: 
     phonon dispersion of undistorted 1H-NbSe2 (metal, no LO-TO)                


     bravais-lattice index     =            0
     lattice parameter (alat)  =       6.5628  a.u.
     unit-cell volume          =    1550.6296 (a.u.)^3
     number of atoms/cell      =            3
     number of atomic types    =            2
     number of electrons       =        25.00
     number of Kohn-Sham states=           17
     kinetic-energy cutoff     =      60.0000  Ry
     charge density cutoff     =     480.0000  Ry
     Exchange-correlation= PBE
                           (   1   4   3   4   0   0   0)

     celldm(1)=   6.562768  celldm(2)=   0.000000  celldm(3)=   0.000000
     celldm(4)=   0.000000  celldm(5)=   0.000000  celldm(6)=   0.000000

     crystal axes: (cart. coord. in units of alat)
               a(1) = (   1.000000   0.000000   0.000000 )  
               a(2) = (  -0.500000   0.865989   0.000000 )  
               a(3) = (   0.000000   0.000000   6.334823 )  

     reciprocal axes: (cart. coord. in units 2 pi/alat)
               b(1) = (  1.000000  0.577374  0.000000 )  
               b(2) = (  0.000000  1.154749  0.000000 )  
               b(3) = (  0.000000  0.000000  0.157858 )  


     PseudoPot. # 1 for Nb read from file:
     ../pseudos/Nb.pbe-spn-kjpaw_psl.1.0.0.UPF
     MD5 check sum: dcedcbb129af9a7271e4748e5febedb1
     Pseudo is Projector augmented-wave + core cor, Zval = 13.0
     Generated using &quot;atomic&quot; code by A. Dal Corso  v.6.2.2
     Shape of augmentation charge: PSQ
     Using radial grid of 1227 points,  6 beta functions with: 
                l(1) =   0
                l(2) =   0
                l(3) =   1
                l(4) =   1
                l(5) =   2
                l(6) =   2
     Q(r) pseudized with 0 coefficients 


     PseudoPot. # 2 for Se read from file:
     ../pseudos/Se.pbe-n-kjpaw_psl.1.0.0.UPF
     MD5 check sum: 12232cb78b362a7b0fca8da9cb95fd5e
     Pseudo is Projector augmented-wave + core cor, Zval =  6.0
     Generated using &quot;atomic&quot; code by A. Dal Corso  v.6.3
     Shape of augmentation charge: PSQ
     Using radial grid of 1211 points,  4 beta functions with: 
                l(1) =   0
                l(2) =   0
                l(3) =   1
                l(4) =   1
     Q(r) pseudized with 0 coefficients 


     atomic species   valence    mass     pseudopotential
     Nb               13.00    92.90638     Nb( 1.00)
     Se                6.00    78.97100     Se( 1.00)

      4 Sym. Ops. (no inversion) found



   Cartesian axes

     site n.     atom                  positions (alat units)
         1        Nb     tau(   1) = (  -0.0000000   0.5773261   0.0000000  )
         2        Se     tau(   2) = (   0.5000000   0.2886630   0.4840148  )
         3        Se     tau(   3) = (   0.5000000   0.2886630  -0.4840148  )

     number of k points=   156  Marzari-Vanderbilt smearing, width (Ry)=  0.0100

     Number of k-points >= 100: set verbosity='high' to print them.

     Dense  grid:   275365 G-vectors     FFT dimensions: (  45,  45, 300)

     Smooth grid:    97333 G-vectors     FFT dimensions: (  36,  36, 216)

     Estimated max dynamical RAM per process >      15.43 MB

     Estimated total dynamical RAM >       2.05 GB
 ----2D----2D----2D----2D----2D----2D----2D----2D----2D----2D----2D----2D
  The code is running with the 2D cutoff
  Please refer to:
  Sohier, T., Calandra, M., & Mauri, F. (2017), 
  Density functional perturbation theory for gated two-dimensional heterostructu
 res:
  Theoretical developments and application to flexural phonons in graphene.
  Physical Review B, 96(7), 75448. https://doi.org/10.1103/PhysRevB.96.075448
 ----2D----2D----2D----2D----2D----2D----2D----2D----2D----2D----2D----2D

     The potential is recalculated from file :
     ./out/_ph0/nbse2.q_2/nbse2.save/charge-density


     negative rho (up, down):  1.480E-04 0.000E+00
     Starting wfcs are   21 atomic wfcs
     Checking if some PAW data can be deallocated... 

     Band Structure Calculation
     Davidson diagonalization with overlap

     ethr =  4.00E-11,  avg # of iterations = 15.7

     total cpu time spent up to now is       11.2 secs

     End of band structure calculation

     Number of k-points >= 100: set verbosity='high' to print the bands.

     the Fermi energy is    -5.5086 ev

     Writing config to output data dir ./out/_ph0/nbse2.q_2/nbse2.save/ :
     XML data file

     phonon dispersion of undistorted 1H-NbSe2 (metal, no LO-TO)                

     bravais-lattice index     =            0
     lattice parameter (alat)  =       6.5628  a.u.
     unit-cell volume          =    1550.6296 (a.u.)^3
     number of atoms/cell      =            3
     number of atomic types    =            2
     kinetic-energy cut-off    =      60.0000  Ry
     charge density cut-off    =     480.0000  Ry
     convergence threshold     =      1.0E-16
     beta                      =       0.7000
     number of iterations used =           12
     Exchange-correlation= PBE
                           (   1   4   3   4   0   0   0)


     celldm(1)=    6.56277  celldm(2)=    0.00000  celldm(3)=    0.00000
     celldm(4)=    0.00000  celldm(5)=    0.00000  celldm(6)=    0.00000

     crystal axes: (cart. coord. in units of alat)
               a(1) = (  1.0000  0.0000  0.0000 )  
               a(2) = ( -0.5000  0.8660  0.0000 )  
               a(3) = (  0.0000  0.0000  6.3348 )  

     reciprocal axes: (cart. coord. in units 2 pi/alat)
               b(1) = (  1.0000  0.5774  0.0000 )  
               b(2) = (  0.0000  1.1547  0.0000 )  
               b(3) = (  0.0000  0.0000  0.1579 )  


     Atoms inside the unit cell: 

     Cartesian axes

     site n.  atom      mass           positions (alat units)
        1  Nb     92.9064   tau(    1) = (   -0.00000    0.57733    0.00000  )
        2  Se     78.9710   tau(    2) = (    0.50000    0.28866    0.48401  )
        3  Se     78.9710   tau(    3) = (    0.50000    0.28866   -0.48401  )

     Computing dynamical matrix for 
                    q = (   0.0000000   0.1924581   0.0000000 )
 
      4 Sym.Ops. (no q -> -q+G )


     G cutoff =  523.6675  (  16218 G-vectors)     FFT grid: ( 45, 45,300)
     G cutoff =  261.8337  (   5718 G-vectors)  smooth grid: ( 36, 36,216)

     number of k points=   156  Marzari-Vanderbilt smearing, width (Ry)=  0.0100

     PseudoPot. # 1 for Nb read from file:
     ../pseudos/Nb.pbe-spn-kjpaw_psl.1.0.0.UPF
     MD5 check sum: dcedcbb129af9a7271e4748e5febedb1
     Pseudo is Projector augmented-wave + core cor, Zval = 13.0
     Generated using &quot;atomic&quot; code by A. Dal Corso  v.6.2.2
     Shape of augmentation charge: PSQ
     Using radial grid of 1227 points,  6 beta functions with: 
                l(1) =   0
                l(2) =   0
                l(3) =   1
                l(4) =   1
                l(5) =   2
                l(6) =   2
     Q(r) pseudized with 0 coefficients 


     PseudoPot. # 2 for Se read from file:
     ../pseudos/Se.pbe-n-kjpaw_psl.1.0.0.UPF
     MD5 check sum: 12232cb78b362a7b0fca8da9cb95fd5e
     Pseudo is Projector augmented-wave + core cor, Zval =  6.0
     Generated using &quot;atomic&quot; code by A. Dal Corso  v.6.3
     Shape of augmentation charge: PSQ
     Using radial grid of 1211 points,  4 beta functions with: 
                l(1) =   0
                l(2) =   0
                l(3) =   1
                l(4) =   1
     Q(r) pseudized with 0 coefficients 


     Mode symmetry, C_2v (mm2)  point group:


     Atomic displacements:
     There are    9 irreducible representations

     Representation     1      1 modes -  To be done

     Representation     2      1 modes -  To be done

     Representation     3      1 modes -  To be done

     Representation     4      1 modes -  To be done

     Representation     5      1 modes -  To be done

     Representation     6      1 modes -  To be done

     Representation     7      1 modes -  To be done

     Representation     8      1 modes -  To be done

     Representation     9      1 modes -  To be done


     Message from routine init_vloc:
     Interpolation table for Vloc re-allocated

     Alpha used in Ewald sum =   2.8000

     negative rho (up, down):  1.480E-04 0.000E+00
     PHONON       :   5m21.52s CPU   5m48.43s WALL



     Representation #   1 mode #   1

     Self-consistent Calculation

      iter #   1 total cpu time :   352.6 secs   av.it.:   7.7
      thresh= 1.000E-02 alpha_mix =  0.700 |ddv_scf|^2 =  2.642E-04

      iter #   2 total cpu time :   358.2 secs   av.it.:  15.1
      thresh= 1.625E-03 alpha_mix =  0.700 |ddv_scf|^2 =  3.890E-01

      iter #   3 total cpu time :   363.7 secs   av.it.:  12.4
      thresh= 1.000E-02 alpha_mix =  0.700 |ddv_scf|^2 =  4.013E-05

      iter #   4 total cpu time :   369.4 secs   av.it.:  14.0
      thresh= 6.335E-04 alpha_mix =  0.700 |ddv_scf|^2 =  7.911E-05

      iter #   5 total cpu time :   374.9 secs   av.it.:  12.8
      thresh= 8.894E-04 alpha_mix =  0.700 |ddv_scf|^2 =  7.533E-08

      iter #   6 total cpu time :   380.8 secs   av.it.:  14.3
      thresh= 2.745E-05 alpha_mix =  0.700 |ddv_scf|^2 =  4.055E-07

      iter #   7 total cpu time :   386.6 secs   av.it.:  11.5
      thresh= 6.368E-05 alpha_mix =  0.700 |ddv_scf|^2 =  7.176E-07

      iter #   8 total cpu time :   392.7 secs   av.it.:  10.9
      thresh= 8.471E-05 alpha_mix =  0.700 |ddv_scf|^2 =  7.486E-11

      iter #   9 total cpu time :   397.7 secs   av.it.:  12.8
      thresh= 8.652E-07 alpha_mix =  0.700 |ddv_scf|^2 =  2.085E-10

      iter #  10 total cpu time :   402.4 secs   av.it.:  11.5
      thresh= 1.444E-06 alpha_mix =  0.700 |ddv_scf|^2 =  1.817E-11

      iter #  11 total cpu time :   407.2 secs   av.it.:  12.0
      thresh= 4.263E-07 alpha_mix =  0.700 |ddv_scf|^2 =  2.364E-11

      iter #  12 total cpu time :   411.8 secs   av.it.:  10.5
      thresh= 4.862E-07 alpha_mix =  0.700 |ddv_scf|^2 =  8.191E-14

      iter #  13 total cpu time :   416.8 secs   av.it.:  11.5
      thresh= 2.862E-08 alpha_mix =  0.700 |ddv_scf|^2 =  2.837E-15

      iter #  14 total cpu time :   422.2 secs   av.it.:  12.4
      thresh= 5.326E-09 alpha_mix =  0.700 |ddv_scf|^2 =  1.131E-15

      iter #  15 total cpu time :   427.3 secs   av.it.:  11.7
      thresh= 3.363E-09 alpha_mix =  0.700 |ddv_scf|^2 =  8.068E-17

     End of self-consistent calculation

     Convergence has been achieved 


     Representation #   2 mode #   2

     Self-consistent Calculation

      iter #   1 total cpu time :   431.8 secs   av.it.:   7.9
      thresh= 1.000E-02 alpha_mix =  0.700 |ddv_scf|^2 =  8.137E-04

      iter #   2 total cpu time :   437.4 secs   av.it.:  15.1
      thresh= 2.852E-03 alpha_mix =  0.700 |ddv_scf|^2 =  1.234E+00

      iter #   3 total cpu time :   442.6 secs   av.it.:  13.3
      thresh= 1.000E-02 alpha_mix =  0.700 |ddv_scf|^2 =  7.900E-06

      iter #   4 total cpu time :   449.7 secs   av.it.:  14.8
      thresh= 2.811E-04 alpha_mix =  0.700 |ddv_scf|^2 =  2.522E-04

      iter #   5 total cpu time :   454.8 secs   av.it.:  11.6
      thresh= 1.588E-03 alpha_mix =  0.700 |ddv_scf|^2 =  2.232E-07

      iter #   6 total cpu time :   459.8 secs   av.it.:  13.1
      thresh= 4.724E-05 alpha_mix =  0.700 |ddv_scf|^2 =  1.068E-06

      iter #   7 total cpu time :   464.9 secs   av.it.:  10.9
      thresh= 1.033E-04 alpha_mix =  0.700 |ddv_scf|^2 =  6.036E-07

      iter #   8 total cpu time :   469.6 secs   av.it.:  11.1
      thresh= 7.769E-05 alpha_mix =  0.700 |ddv_scf|^2 =  1.032E-09

      iter #   9 total cpu time :   474.7 secs   av.it.:  12.1
      thresh= 3.213E-06 alpha_mix =  0.700 |ddv_scf|^2 =  2.248E-10

      iter #  10 total cpu time :   479.9 secs   av.it.:  12.1
      thresh= 1.499E-06 alpha_mix =  0.700 |ddv_scf|^2 =  2.536E-10

      iter #  11 total cpu time :   487.1 secs   av.it.:  11.1
      thresh= 1.592E-06 alpha_mix =  0.700 |ddv_scf|^2 =  1.807E-11

      iter #  12 total cpu time :   491.9 secs   av.it.:  11.5
      thresh= 4.251E-07 alpha_mix =  0.700 |ddv_scf|^2 =  1.353E-14

      iter #  13 total cpu time :   497.2 secs   av.it.:  13.7
      thresh= 1.163E-08 alpha_mix =  0.700 |ddv_scf|^2 =  6.264E-16

      iter #  14 total cpu time :   503.5 secs   av.it.:  12.8
      thresh= 2.503E-09 alpha_mix =  0.700 |ddv_scf|^2 =  2.114E-16

      iter #  15 total cpu time :   509.6 secs   av.it.:  11.7
      thresh= 1.454E-09 alpha_mix =  0.700 |ddv_scf|^2 =  8.516E-18

     End of self-consistent calculation

     Convergence has been achieved 


     Representation #   3 mode #   3

     Self-consistent Calculation

      iter #   1 total cpu time :   514.3 secs   av.it.:   9.6
      thresh= 1.000E-02 alpha_mix =  0.700 |ddv_scf|^2 =  2.511E-03

      iter #   2 total cpu time :   520.0 secs   av.it.:  15.1
      thresh= 5.011E-03 alpha_mix =  0.700 |ddv_scf|^2 =  3.708E+00

      iter #   3 total cpu time :   525.7 secs   av.it.:  14.1
      thresh= 1.000E-02 alpha_mix =  0.700 |ddv_scf|^2 =  3.686E-04

      iter #   4 total cpu time :   530.9 secs   av.it.:  12.4
      thresh= 1.920E-03 alpha_mix =  0.700 |ddv_scf|^2 =  9.407E-04

      iter #   5 total cpu time :   535.7 secs   av.it.:  10.7
      thresh= 3.067E-03 alpha_mix =  0.700 |ddv_scf|^2 =  8.568E-07

      iter #   6 total cpu time :   542.7 secs   av.it.:  13.9
      thresh= 9.256E-05 alpha_mix =  0.700 |ddv_scf|^2 =  2.702E-06

      iter #   7 total cpu time :   547.2 secs   av.it.:   9.8
      thresh= 1.644E-04 alpha_mix =  0.700 |ddv_scf|^2 =  3.117E-06

      iter #   8 total cpu time :   551.9 secs   av.it.:  11.3
      thresh= 1.766E-04 alpha_mix =  0.700 |ddv_scf|^2 =  8.313E-09

      iter #   9 total cpu time :   557.2 secs   av.it.:  12.5
      thresh= 9.118E-06 alpha_mix =  0.700 |ddv_scf|^2 =  1.239E-09

      iter #  10 total cpu time :   562.0 secs   av.it.:  11.9
      thresh= 3.520E-06 alpha_mix =  0.700 |ddv_scf|^2 =  9.652E-12

      iter #  11 total cpu time :   568.8 secs   av.it.:  13.9
      thresh= 3.107E-07 alpha_mix =  0.700 |ddv_scf|^2 =  8.325E-11

      iter #  12 total cpu time :   573.7 secs   av.it.:  10.9
      thresh= 9.124E-07 alpha_mix =  0.700 |ddv_scf|^2 =  1.832E-12

      iter #  13 total cpu time :   578.2 secs   av.it.:  10.9
      thresh= 1.353E-07 alpha_mix =  0.700 |ddv_scf|^2 =  2.884E-14

      iter #  14 total cpu time :   583.3 secs   av.it.:  11.6
      thresh= 1.698E-08 alpha_mix =  0.700 |ddv_scf|^2 =  1.679E-15

      iter #  15 total cpu time :   588.5 secs   av.it.:  11.6
      thresh= 4.098E-09 alpha_mix =  0.700 |ddv_scf|^2 =  3.033E-16

      iter #  16 total cpu time :   594.8 secs   av.it.:  11.6
      thresh= 1.742E-09 alpha_mix =  0.700 |ddv_scf|^2 =  3.495E-17

     End of self-consistent calculation

     Convergence has been achieved 


     Representation #   4 mode #   4

     Self-consistent Calculation

      iter #   1 total cpu time :   598.5 secs   av.it.:   6.1
      thresh= 1.000E-02 alpha_mix =  0.700 |ddv_scf|^2 =  1.028E-08

      iter #   2 total cpu time :   604.4 secs   av.it.:  15.2
      thresh= 1.014E-05 alpha_mix =  0.700 |ddv_scf|^2 =  5.545E-10

      iter #   3 total cpu time :   609.9 secs   av.it.:  15.2
      thresh= 2.355E-06 alpha_mix =  0.700 |ddv_scf|^2 =  3.605E-11

      iter #   4 total cpu time :   615.9 secs   av.it.:  14.4
      thresh= 6.004E-07 alpha_mix =  0.700 |ddv_scf|^2 =  1.243E-13

      iter #   5 total cpu time :   621.1 secs   av.it.:  14.2
      thresh= 3.526E-08 alpha_mix =  0.700 |ddv_scf|^2 =  1.359E-15

      iter #   6 total cpu time :   627.5 secs   av.it.:  14.5
      thresh= 3.686E-09 alpha_mix =  0.700 |ddv_scf|^2 =  1.046E-16

      iter #   7 total cpu time :   633.4 secs   av.it.:  14.1
      thresh= 1.023E-09 alpha_mix =  0.700 |ddv_scf|^2 =  3.645E-19

     End of self-consistent calculation

     Convergence has been achieved 


     Representation #   5 mode #   5

     Self-consistent Calculation

      iter #   1 total cpu time :   637.2 secs   av.it.:   6.4
      thresh= 1.000E-02 alpha_mix =  0.700 |ddv_scf|^2 =  1.367E-08

      iter #   2 total cpu time :   642.9 secs   av.it.:  15.9
      thresh= 1.169E-05 alpha_mix =  0.700 |ddv_scf|^2 =  1.354E-09

      iter #   3 total cpu time :   650.5 secs   av.it.:  15.9
      thresh= 3.679E-06 alpha_mix =  0.700 |ddv_scf|^2 =  6.354E-11

      iter #   4 total cpu time :   656.5 secs   av.it.:  15.3
      thresh= 7.971E-07 alpha_mix =  0.700 |ddv_scf|^2 =  1.235E-12

      iter #   5 total cpu time :   663.0 secs   av.it.:  15.6
      thresh= 1.111E-07 alpha_mix =  0.700 |ddv_scf|^2 =  3.858E-14

      iter #   6 total cpu time :   669.0 secs   av.it.:  15.1
      thresh= 1.964E-08 alpha_mix =  0.700 |ddv_scf|^2 =  4.536E-16

      iter #   7 total cpu time :   675.0 secs   av.it.:  15.4
      thresh= 2.130E-09 alpha_mix =  0.700 |ddv_scf|^2 =  2.528E-17

     End of self-consistent calculation

     Convergence has been achieved 


     Representation #   6 mode #   6

     Self-consistent Calculation

      iter #   1 total cpu time :   679.3 secs   av.it.:   8.3
      thresh= 1.000E-02 alpha_mix =  0.700 |ddv_scf|^2 =  3.800E-07

      iter #   2 total cpu time :   685.9 secs   av.it.:  15.7
      thresh= 6.164E-05 alpha_mix =  0.700 |ddv_scf|^2 =  4.349E-08

      iter #   3 total cpu time :   692.0 secs   av.it.:  15.7
      thresh= 2.085E-05 alpha_mix =  0.700 |ddv_scf|^2 =  2.750E-09

      iter #   4 total cpu time :   697.6 secs   av.it.:  14.9
      thresh= 5.244E-06 alpha_mix =  0.700 |ddv_scf|^2 =  1.854E-11

      iter #   5 total cpu time :   703.6 secs   av.it.:  16.0
      thresh= 4.306E-07 alpha_mix =  0.700 |ddv_scf|^2 =  1.711E-13

      iter #   6 total cpu time :   710.7 secs   av.it.:  15.9
      thresh= 4.136E-08 alpha_mix =  0.700 |ddv_scf|^2 =  2.772E-15

      iter #   7 total cpu time :   716.5 secs   av.it.:  15.3
      thresh= 5.265E-09 alpha_mix =  0.700 |ddv_scf|^2 =  1.261E-16

      iter #   8 total cpu time :   722.8 secs   av.it.:  15.7
      thresh= 1.123E-09 alpha_mix =  0.700 |ddv_scf|^2 =  4.047E-19

     End of self-consistent calculation

     Convergence has been achieved 


     Representation #   7 mode #   7

     Self-consistent Calculation

      iter #   1 total cpu time :   727.3 secs   av.it.:   6.9
      thresh= 1.000E-02 alpha_mix =  0.700 |ddv_scf|^2 =  3.773E-06

      iter #   2 total cpu time :   732.7 secs   av.it.:  14.7
      thresh= 1.942E-04 alpha_mix =  0.700 |ddv_scf|^2 =  3.944E-05

      iter #   3 total cpu time :   737.7 secs   av.it.:  12.8
      thresh= 6.280E-04 alpha_mix =  0.700 |ddv_scf|^2 =  2.119E-07

      iter #   4 total cpu time :   743.0 secs   av.it.:  13.4
      thresh= 4.603E-05 alpha_mix =  0.700 |ddv_scf|^2 =  8.790E-10

      iter #   5 total cpu time :   749.5 secs   av.it.:  13.7
      thresh= 2.965E-06 alpha_mix =  0.700 |ddv_scf|^2 =  1.530E-10

      iter #   6 total cpu time :   754.7 secs   av.it.:  14.3
      thresh= 1.237E-06 alpha_mix =  0.700 |ddv_scf|^2 =  5.338E-12

      iter #   7 total cpu time :   760.0 secs   av.it.:  14.6
      thresh= 2.311E-07 alpha_mix =  0.700 |ddv_scf|^2 =  1.154E-13

      iter #   8 total cpu time :   766.7 secs   av.it.:  13.5
      thresh= 3.397E-08 alpha_mix =  0.700 |ddv_scf|^2 =  8.541E-15

      iter #   9 total cpu time :   771.9 secs   av.it.:  13.7
      thresh= 9.241E-09 alpha_mix =  0.700 |ddv_scf|^2 =  6.617E-15

      iter #  10 total cpu time :   777.0 secs   av.it.:  13.0
      thresh= 8.134E-09 alpha_mix =  0.700 |ddv_scf|^2 =  1.802E-16

      iter #  11 total cpu time :   782.6 secs   av.it.:  13.9
      thresh= 1.342E-09 alpha_mix =  0.700 |ddv_scf|^2 =  3.742E-18

     End of self-consistent calculation

     Convergence has been achieved 


     Representation #   8 mode #   8

     Self-consistent Calculation

      iter #   1 total cpu time :   787.5 secs   av.it.:   9.0
      thresh= 1.000E-02 alpha_mix =  0.700 |ddv_scf|^2 =  2.415E-05

      iter #   2 total cpu time :   793.0 secs   av.it.:  15.2
      thresh= 4.915E-04 alpha_mix =  0.700 |ddv_scf|^2 =  3.156E-04

      iter #   3 total cpu time :   798.0 secs   av.it.:  12.7
      thresh= 1.777E-03 alpha_mix =  0.700 |ddv_scf|^2 =  1.275E-07

      iter #   4 total cpu time :   803.9 secs   av.it.:  15.0
      thresh= 3.571E-05 alpha_mix =  0.700 |ddv_scf|^2 =  3.157E-08

      iter #   5 total cpu time :   810.6 secs   av.it.:  14.0
      thresh= 1.777E-05 alpha_mix =  0.700 |ddv_scf|^2 =  1.440E-09

      iter #   6 total cpu time :   816.1 secs   av.it.:  13.8
      thresh= 3.795E-06 alpha_mix =  0.700 |ddv_scf|^2 =  4.624E-11

      iter #   7 total cpu time :   823.1 secs   av.it.:  14.1
      thresh= 6.800E-07 alpha_mix =  0.700 |ddv_scf|^2 =  2.803E-13

      iter #   8 total cpu time :   828.5 secs   av.it.:  14.8
      thresh= 5.294E-08 alpha_mix =  0.700 |ddv_scf|^2 =  6.845E-13

      iter #   9 total cpu time :   833.9 secs   av.it.:  12.9
      thresh= 8.273E-08 alpha_mix =  0.700 |ddv_scf|^2 =  2.533E-15

      iter #  10 total cpu time :   839.3 secs   av.it.:  14.9
      thresh= 5.033E-09 alpha_mix =  0.700 |ddv_scf|^2 =  6.998E-17

     End of self-consistent calculation

     Convergence has been achieved 


     Representation #   9 mode #   9

     Self-consistent Calculation

      iter #   1 total cpu time :   843.9 secs   av.it.:   6.7
      thresh= 1.000E-02 alpha_mix =  0.700 |ddv_scf|^2 =  5.734E-07

      iter #   2 total cpu time :   849.3 secs   av.it.:  15.3
      thresh= 7.572E-05 alpha_mix =  0.700 |ddv_scf|^2 =  7.125E-06

      iter #   3 total cpu time :   854.2 secs   av.it.:  12.7
      thresh= 2.669E-04 alpha_mix =  0.700 |ddv_scf|^2 =  4.398E-09

      iter #   4 total cpu time :   861.0 secs   av.it.:  15.2
      thresh= 6.632E-06 alpha_mix =  0.700 |ddv_scf|^2 =  1.216E-10

      iter #   5 total cpu time :   867.6 secs   av.it.:  15.1
      thresh= 1.103E-06 alpha_mix =  0.700 |ddv_scf|^2 =  5.313E-11

      iter #   6 total cpu time :   874.1 secs   av.it.:  14.3
      thresh= 7.289E-07 alpha_mix =  0.700 |ddv_scf|^2 =  7.603E-12

      iter #   7 total cpu time :   879.5 secs   av.it.:  14.2
      thresh= 2.757E-07 alpha_mix =  0.700 |ddv_scf|^2 =  1.389E-13

      iter #   8 total cpu time :   885.0 secs   av.it.:  14.1
      thresh= 3.727E-08 alpha_mix =  0.700 |ddv_scf|^2 =  1.508E-13

      iter #   9 total cpu time :   889.9 secs   av.it.:  12.9
      thresh= 3.884E-08 alpha_mix =  0.700 |ddv_scf|^2 =  1.582E-15

      iter #  10 total cpu time :   895.5 secs   av.it.:  14.2
      thresh= 3.977E-09 alpha_mix =  0.700 |ddv_scf|^2 =  2.773E-17

     End of self-consistent calculation

     Convergence has been achieved 
 
     Number of q in the star =    1
     List of q in the star:
          1   0.000000000   0.192458150   0.000000000
     In addition there is the -q list: 
          1   0.000000000  -0.192458150   0.000000000

     Diagonalizing the dynamical matrix

     q = (    0.000000000   0.192458150   0.000000000 ) 

 **************************************************************************
     freq (    1) =       0.726753 [THz] =      24.241869 [cm-1]
     freq (    2) =       1.213785 [THz] =      40.487503 [cm-1]
     freq (    3) =       1.585377 [THz] =      52.882496 [cm-1]
     freq (    4) =       4.061483 [THz] =     135.476496 [cm-1]
     freq (    5) =       4.348852 [THz] =     145.062091 [cm-1]
     freq (    6) =       4.934158 [THz] =     164.585783 [cm-1]
     freq (    7) =       5.535063 [THz] =     184.629835 [cm-1]
     freq (    8) =       6.830834 [THz] =     227.852098 [cm-1]
     freq (    9) =       8.215799 [THz] =     274.049568 [cm-1]
 **************************************************************************

     Mode symmetry, C_2v (mm2)  point group:

     freq (   1-   1) =         24.2  [cm-1]   --> B_2  D_4  S_4      
     freq (   2-   2) =         40.5  [cm-1]   --> B_1  D_3  S_3      
     freq (   3-   3) =         52.9  [cm-1]   --> A_1  D_1  S_1      
     freq (   4-   4) =        135.5  [cm-1]   --> A_2  D_2  S_2      
     freq (   5-   5) =        145.1  [cm-1]   --> B_2  D_4  S_4      
     freq (   6-   6) =        164.6  [cm-1]   --> A_1  D_1  S_1      
     freq (   7-   7) =        184.6  [cm-1]   --> B_1  D_3  S_3      
     freq (   8-   8) =        227.9  [cm-1]   --> A_1  D_1  S_1      
     freq (   9-   9) =        274.0  [cm-1]   --> B_2  D_4  S_4      

     Calculation of q =    0.0000000   0.3849163   0.0000000
 
     Parallelization info
     --------------------
     sticks:   dense  smooth     PW     G-vecs:    dense   smooth      PW
     Min          83      42     13                16187     5716    1007
     Max          84      43     14                16218     5732    1024
     Sum        1417     721    223               275365    97333   17281
 
     Using Slab Decomposition
 

     Title: 
     phonon dispersion of undistorted 1H-NbSe2 (metal, no LO-TO)                


     bravais-lattice index     =            0
     lattice parameter (alat)  =       6.5628  a.u.
     unit-cell volume          =    1550.6296 (a.u.)^3
     number of atoms/cell      =            3
     number of atomic types    =            2
     number of electrons       =        25.00
     number of Kohn-Sham states=           17
     kinetic-energy cutoff     =      60.0000  Ry
     charge density cutoff     =     480.0000  Ry
     Exchange-correlation= PBE
                           (   1   4   3   4   0   0   0)

     celldm(1)=   6.562768  celldm(2)=   0.000000  celldm(3)=   0.000000
     celldm(4)=   0.000000  celldm(5)=   0.000000  celldm(6)=   0.000000

     crystal axes: (cart. coord. in units of alat)
               a(1) = (   1.000000   0.000000   0.000000 )  
               a(2) = (  -0.500000   0.865989   0.000000 )  
               a(3) = (   0.000000   0.000000   6.334823 )  

     reciprocal axes: (cart. coord. in units 2 pi/alat)
               b(1) = (  1.000000  0.577374  0.000000 )  
               b(2) = (  0.000000  1.154749  0.000000 )  
               b(3) = (  0.000000  0.000000  0.157858 )  


     PseudoPot. # 1 for Nb read from file:
     ../pseudos/Nb.pbe-spn-kjpaw_psl.1.0.0.UPF
     MD5 check sum: dcedcbb129af9a7271e4748e5febedb1
     Pseudo is Projector augmented-wave + core cor, Zval = 13.0
     Generated using &quot;atomic&quot; code by A. Dal Corso  v.6.2.2
     Shape of augmentation charge: PSQ
     Using radial grid of 1227 points,  6 beta functions with: 
                l(1) =   0
                l(2) =   0
                l(3) =   1
                l(4) =   1
                l(5) =   2
                l(6) =   2
     Q(r) pseudized with 0 coefficients 


     PseudoPot. # 2 for Se read from file:
     ../pseudos/Se.pbe-n-kjpaw_psl.1.0.0.UPF
     MD5 check sum: 12232cb78b362a7b0fca8da9cb95fd5e
     Pseudo is Projector augmented-wave + core cor, Zval =  6.0
     Generated using &quot;atomic&quot; code by A. Dal Corso  v.6.3
     Shape of augmentation charge: PSQ
     Using radial grid of 1211 points,  4 beta functions with: 
                l(1) =   0
                l(2) =   0
                l(3) =   1
                l(4) =   1
     Q(r) pseudized with 0 coefficients 


     atomic species   valence    mass     pseudopotential
     Nb               13.00    92.90638     Nb( 1.00)
     Se                6.00    78.97100     Se( 1.00)

      4 Sym. Ops. (no inversion) found



   Cartesian axes

     site n.     atom                  positions (alat units)
         1        Nb     tau(   1) = (  -0.0000000   0.5773261   0.0000000  )
         2        Se     tau(   2) = (   0.5000000   0.2886630   0.4840148  )
         3        Se     tau(   3) = (   0.5000000   0.2886630  -0.4840148  )

     number of k points=   156  Marzari-Vanderbilt smearing, width (Ry)=  0.0100

     Number of k-points >= 100: set verbosity='high' to print them.

     Dense  grid:   275365 G-vectors     FFT dimensions: (  45,  45, 300)

     Smooth grid:    97333 G-vectors     FFT dimensions: (  36,  36, 216)

     Estimated max dynamical RAM per process >      15.46 MB

     Estimated total dynamical RAM >       2.05 GB
 ----2D----2D----2D----2D----2D----2D----2D----2D----2D----2D----2D----2D
  The code is running with the 2D cutoff
  Please refer to:
  Sohier, T., Calandra, M., & Mauri, F. (2017), 
  Density functional perturbation theory for gated two-dimensional heterostructu
 res:
  Theoretical developments and application to flexural phonons in graphene.
  Physical Review B, 96(7), 75448. https://doi.org/10.1103/PhysRevB.96.075448
 ----2D----2D----2D----2D----2D----2D----2D----2D----2D----2D----2D----2D

     The potential is recalculated from file :
     ./out/_ph0/nbse2.q_3/nbse2.save/charge-density


     negative rho (up, down):  1.480E-04 0.000E+00
     Starting wfcs are   21 atomic wfcs
     Checking if some PAW data can be deallocated... 

     Band Structure Calculation
     Davidson diagonalization with overlap

     ethr =  4.00E-11,  avg # of iterations = 15.7

     total cpu time spent up to now is       22.4 secs

     End of band structure calculation

     Number of k-points >= 100: set verbosity='high' to print the bands.

     the Fermi energy is    -5.5086 ev

     Writing config to output data dir ./out/_ph0/nbse2.q_3/nbse2.save/ :
     XML data file

     phonon dispersion of undistorted 1H-NbSe2 (metal, no LO-TO)                

     bravais-lattice index     =            0
     lattice parameter (alat)  =       6.5628  a.u.
     unit-cell volume          =    1550.6296 (a.u.)^3
     number of atoms/cell      =            3
     number of atomic types    =            2
     kinetic-energy cut-off    =      60.0000  Ry
     charge density cut-off    =     480.0000  Ry
     convergence threshold     =      1.0E-16
     beta                      =       0.7000
     number of iterations used =           12
     Exchange-correlation= PBE
                           (   1   4   3   4   0   0   0)


     celldm(1)=    6.56277  celldm(2)=    0.00000  celldm(3)=    0.00000
     celldm(4)=    0.00000  celldm(5)=    0.00000  celldm(6)=    0.00000

     crystal axes: (cart. coord. in units of alat)
               a(1) = (  1.0000  0.0000  0.0000 )  
               a(2) = ( -0.5000  0.8660  0.0000 )  
               a(3) = (  0.0000  0.0000  6.3348 )  

     reciprocal axes: (cart. coord. in units 2 pi/alat)
               b(1) = (  1.0000  0.5774  0.0000 )  
               b(2) = (  0.0000  1.1547  0.0000 )  
               b(3) = (  0.0000  0.0000  0.1579 )  


     Atoms inside the unit cell: 

     Cartesian axes

     site n.  atom      mass           positions (alat units)
        1  Nb     92.9064   tau(    1) = (   -0.00000    0.57733    0.00000  )
        2  Se     78.9710   tau(    2) = (    0.50000    0.28866    0.48401  )
        3  Se     78.9710   tau(    3) = (    0.50000    0.28866   -0.48401  )

     Computing dynamical matrix for 
                    q = (   0.0000000   0.3849163   0.0000000 )
 
      4 Sym.Ops. (no q -> -q+G )


     G cutoff =  523.6675  (  16218 G-vectors)     FFT grid: ( 45, 45,300)
     G cutoff =  261.8337  (   5718 G-vectors)  smooth grid: ( 36, 36,216)

     number of k points=   156  Marzari-Vanderbilt smearing, width (Ry)=  0.0100

     PseudoPot. # 1 for Nb read from file:
     ../pseudos/Nb.pbe-spn-kjpaw_psl.1.0.0.UPF
     MD5 check sum: dcedcbb129af9a7271e4748e5febedb1
     Pseudo is Projector augmented-wave + core cor, Zval = 13.0
     Generated using &quot;atomic&quot; code by A. Dal Corso  v.6.2.2
     Shape of augmentation charge: PSQ
     Using radial grid of 1227 points,  6 beta functions with: 
                l(1) =   0
                l(2) =   0
                l(3) =   1
                l(4) =   1
                l(5) =   2
                l(6) =   2
     Q(r) pseudized with 0 coefficients 


     PseudoPot. # 2 for Se read from file:
     ../pseudos/Se.pbe-n-kjpaw_psl.1.0.0.UPF
     MD5 check sum: 12232cb78b362a7b0fca8da9cb95fd5e
     Pseudo is Projector augmented-wave + core cor, Zval =  6.0
     Generated using &quot;atomic&quot; code by A. Dal Corso  v.6.3
     Shape of augmentation charge: PSQ
     Using radial grid of 1211 points,  4 beta functions with: 
                l(1) =   0
                l(2) =   0
                l(3) =   1
                l(4) =   1
     Q(r) pseudized with 0 coefficients 


     Mode symmetry, C_2v (mm2)  point group:


     Atomic displacements:
     There are    9 irreducible representations

     Representation     1      1 modes -  To be done

     Representation     2      1 modes -  To be done

     Representation     3      1 modes -  To be done

     Representation     4      1 modes -  To be done

     Representation     5      1 modes -  To be done

     Representation     6      1 modes -  To be done

     Representation     7      1 modes -  To be done

     Representation     8      1 modes -  To be done

     Representation     9      1 modes -  To be done



     Alpha used in Ewald sum =   2.8000

     negative rho (up, down):  1.480E-04 0.000E+00
     PHONON       :  14m13.91s CPU  15m13.84s WALL



     Representation #   1 mode #   1

     Self-consistent Calculation

      iter #   1 total cpu time :   917.9 secs   av.it.:   7.5
      thresh= 1.000E-02 alpha_mix =  0.700 |ddv_scf|^2 =  4.476E-06

      iter #   2 total cpu time :   924.5 secs   av.it.:  16.1
      thresh= 2.116E-04 alpha_mix =  0.700 |ddv_scf|^2 =  3.909E-04

      iter #   3 total cpu time :   930.4 secs   av.it.:  12.8
      thresh= 1.977E-03 alpha_mix =  0.700 |ddv_scf|^2 =  2.412E-06

      iter #   4 total cpu time :   936.1 secs   av.it.:  14.2
      thresh= 1.553E-04 alpha_mix =  0.700 |ddv_scf|^2 =  2.738E-07

      iter #   5 total cpu time :   941.8 secs   av.it.:  14.1
      thresh= 5.232E-05 alpha_mix =  0.700 |ddv_scf|^2 =  1.765E-08

      iter #   6 total cpu time :   947.1 secs   av.it.:  14.5
      thresh= 1.328E-05 alpha_mix =  0.700 |ddv_scf|^2 =  5.923E-11

      iter #   7 total cpu time :   953.0 secs   av.it.:  15.7
      thresh= 7.696E-07 alpha_mix =  0.700 |ddv_scf|^2 =  6.861E-11

      iter #   8 total cpu time :   958.5 secs   av.it.:  14.6
      thresh= 8.283E-07 alpha_mix =  0.700 |ddv_scf|^2 =  3.999E-10

      iter #   9 total cpu time :   964.4 secs   av.it.:  13.1
      thresh= 2.000E-06 alpha_mix =  0.700 |ddv_scf|^2 =  1.958E-12

      iter #  10 total cpu time :   969.7 secs   av.it.:  14.2
      thresh= 1.399E-07 alpha_mix =  0.700 |ddv_scf|^2 =  2.445E-13

      iter #  11 total cpu time :   975.4 secs   av.it.:  13.9
      thresh= 4.945E-08 alpha_mix =  0.700 |ddv_scf|^2 =  1.983E-14

      iter #  12 total cpu time :   980.9 secs   av.it.:  14.3
      thresh= 1.408E-08 alpha_mix =  0.700 |ddv_scf|^2 =  1.001E-14

      iter #  13 total cpu time :   987.6 secs   av.it.:  14.0
      thresh= 1.000E-08 alpha_mix =  0.700 |ddv_scf|^2 =  5.865E-17

     End of self-consistent calculation

     Convergence has been achieved 


     Representation #   2 mode #   2

     Self-consistent Calculation

      iter #   1 total cpu time :   992.1 secs   av.it.:   7.8
      thresh= 1.000E-02 alpha_mix =  0.700 |ddv_scf|^2 =  1.421E-05

      iter #   2 total cpu time :   997.8 secs   av.it.:  16.1
      thresh= 3.770E-04 alpha_mix =  0.700 |ddv_scf|^2 =  1.479E-03

      iter #   3 total cpu time :  1002.8 secs   av.it.:  12.7
      thresh= 3.846E-03 alpha_mix =  0.700 |ddv_scf|^2 =  5.924E-07

      iter #   4 total cpu time :  1008.3 secs   av.it.:  14.6
      thresh= 7.697E-05 alpha_mix =  0.700 |ddv_scf|^2 =  2.192E-07

      iter #   5 total cpu time :  1014.0 secs   av.it.:  14.2
      thresh= 4.682E-05 alpha_mix =  0.700 |ddv_scf|^2 =  3.366E-09

      iter #   6 total cpu time :  1019.9 secs   av.it.:  14.8
      thresh= 5.802E-06 alpha_mix =  0.700 |ddv_scf|^2 =  5.514E-11

      iter #   7 total cpu time :  1026.1 secs   av.it.:  15.8
      thresh= 7.425E-07 alpha_mix =  0.700 |ddv_scf|^2 =  7.854E-10

      iter #   8 total cpu time :  1031.3 secs   av.it.:  13.1
      thresh= 2.803E-06 alpha_mix =  0.700 |ddv_scf|^2 =  1.302E-10

      iter #   9 total cpu time :  1036.6 secs   av.it.:  13.9
      thresh= 1.141E-06 alpha_mix =  0.700 |ddv_scf|^2 =  4.863E-13

      iter #  10 total cpu time :  1042.9 secs   av.it.:  15.6
      thresh= 6.973E-08 alpha_mix =  0.700 |ddv_scf|^2 =  2.440E-13

      iter #  11 total cpu time :  1049.5 secs   av.it.:  14.2
      thresh= 4.940E-08 alpha_mix =  0.700 |ddv_scf|^2 =  1.123E-14

      iter #  12 total cpu time :  1055.3 secs   av.it.:  14.6
      thresh= 1.060E-08 alpha_mix =  0.700 |ddv_scf|^2 =  9.942E-15

      iter #  13 total cpu time :  1061.1 secs   av.it.:  13.8
      thresh= 9.971E-09 alpha_mix =  0.700 |ddv_scf|^2 =  3.171E-17

     End of self-consistent calculation

     Convergence has been achieved 


     Representation #   3 mode #   3

     Self-consistent Calculation

      iter #   1 total cpu time :  1066.0 secs   av.it.:   9.5
      thresh= 1.000E-02 alpha_mix =  0.700 |ddv_scf|^2 =  5.049E-05

      iter #   2 total cpu time :  1071.9 secs   av.it.:  16.1
      thresh= 7.106E-04 alpha_mix =  0.700 |ddv_scf|^2 =  4.550E-03

      iter #   3 total cpu time :  1077.0 secs   av.it.:  12.8
      thresh= 6.745E-03 alpha_mix =  0.700 |ddv_scf|^2 =  2.173E-05

      iter #   4 total cpu time :  1083.0 secs   av.it.:  14.3
      thresh= 4.662E-04 alpha_mix =  0.700 |ddv_scf|^2 =  4.112E-06

      iter #   5 total cpu time :  1088.4 secs   av.it.:  14.0
      thresh= 2.028E-04 alpha_mix =  0.700 |ddv_scf|^2 =  2.100E-07

      iter #   6 total cpu time :  1093.8 secs   av.it.:  14.6
      thresh= 4.583E-05 alpha_mix =  0.700 |ddv_scf|^2 =  7.283E-10

      iter #   7 total cpu time :  1099.8 secs   av.it.:  15.0
      thresh= 2.699E-06 alpha_mix =  0.700 |ddv_scf|^2 =  6.744E-10

      iter #   8 total cpu time :  1105.9 secs   av.it.:  14.1
      thresh= 2.597E-06 alpha_mix =  0.700 |ddv_scf|^2 =  1.333E-09

      iter #   9 total cpu time :  1111.7 secs   av.it.:  13.3
      thresh= 3.651E-06 alpha_mix =  0.700 |ddv_scf|^2 =  9.136E-12

      iter #  10 total cpu time :  1116.9 secs   av.it.:  14.0
      thresh= 3.023E-07 alpha_mix =  0.700 |ddv_scf|^2 =  1.862E-13

      iter #  11 total cpu time :  1122.4 secs   av.it.:  14.8
      thresh= 4.315E-08 alpha_mix =  0.700 |ddv_scf|^2 =  1.873E-13

      iter #  12 total cpu time :  1127.7 secs   av.it.:  13.9
      thresh= 4.328E-08 alpha_mix =  0.700 |ddv_scf|^2 =  8.735E-15

      iter #  13 total cpu time :  1133.2 secs   av.it.:  13.9
      thresh= 9.346E-09 alpha_mix =  0.700 |ddv_scf|^2 =  5.665E-17

     End of self-consistent calculation

     Convergence has been achieved 


     Representation #   4 mode #   4

     Self-consistent Calculation

      iter #   1 total cpu time :  1136.9 secs   av.it.:   6.1
      thresh= 1.000E-02 alpha_mix =  0.700 |ddv_scf|^2 =  1.380E-08

      iter #   2 total cpu time :  1142.8 secs   av.it.:  15.3
      thresh= 1.175E-05 alpha_mix =  0.700 |ddv_scf|^2 =  9.056E-10

      iter #   3 total cpu time :  1148.4 secs   av.it.:  15.2
      thresh= 3.009E-06 alpha_mix =  0.700 |ddv_scf|^2 =  4.192E-11

      iter #   4 total cpu time :  1154.3 secs   av.it.:  14.4
      thresh= 6.474E-07 alpha_mix =  0.700 |ddv_scf|^2 =  1.812E-13

      iter #   5 total cpu time :  1159.9 secs   av.it.:  14.1
      thresh= 4.257E-08 alpha_mix =  0.700 |ddv_scf|^2 =  2.212E-15

      iter #   6 total cpu time :  1165.8 secs   av.it.:  14.2
      thresh= 4.703E-09 alpha_mix =  0.700 |ddv_scf|^2 =  1.167E-16

      iter #   7 total cpu time :  1171.8 secs   av.it.:  14.3
      thresh= 1.080E-09 alpha_mix =  0.700 |ddv_scf|^2 =  2.647E-19

     End of self-consistent calculation

     Convergence has been achieved 


     Representation #   5 mode #   5

     Self-consistent Calculation

      iter #   1 total cpu time :  1175.6 secs   av.it.:   6.5
      thresh= 1.000E-02 alpha_mix =  0.700 |ddv_scf|^2 =  2.010E-08

      iter #   2 total cpu time :  1181.4 secs   av.it.:  15.9
      thresh= 1.418E-05 alpha_mix =  0.700 |ddv_scf|^2 =  2.944E-09

      iter #   3 total cpu time :  1187.0 secs   av.it.:  15.7
      thresh= 5.426E-06 alpha_mix =  0.700 |ddv_scf|^2 =  7.969E-11

      iter #   4 total cpu time :  1192.8 secs   av.it.:  15.3
      thresh= 8.927E-07 alpha_mix =  0.700 |ddv_scf|^2 =  1.808E-12

      iter #   5 total cpu time :  1198.6 secs   av.it.:  15.6
      thresh= 1.345E-07 alpha_mix =  0.700 |ddv_scf|^2 =  5.291E-14

      iter #   6 total cpu time :  1204.5 secs   av.it.:  15.1
      thresh= 2.300E-08 alpha_mix =  0.700 |ddv_scf|^2 =  5.408E-16

      iter #   7 total cpu time :  1210.1 secs   av.it.:  15.1
      thresh= 2.326E-09 alpha_mix =  0.700 |ddv_scf|^2 =  1.152E-17

     End of self-consistent calculation

     Convergence has been achieved 


     Representation #   6 mode #   6

     Self-consistent Calculation

      iter #   1 total cpu time :  1214.6 secs   av.it.:   8.4
      thresh= 1.000E-02 alpha_mix =  0.700 |ddv_scf|^2 =  4.624E-07

      iter #   2 total cpu time :  1220.7 secs   av.it.:  15.8
      thresh= 6.800E-05 alpha_mix =  0.700 |ddv_scf|^2 =  7.202E-08

      iter #   3 total cpu time :  1227.6 secs   av.it.:  15.7
      thresh= 2.684E-05 alpha_mix =  0.700 |ddv_scf|^2 =  3.726E-09

      iter #   4 total cpu time :  1233.2 secs   av.it.:  15.0
      thresh= 6.104E-06 alpha_mix =  0.700 |ddv_scf|^2 =  2.894E-11

      iter #   5 total cpu time :  1239.1 secs   av.it.:  15.9
      thresh= 5.380E-07 alpha_mix =  0.700 |ddv_scf|^2 =  2.063E-13

      iter #   6 total cpu time :  1245.0 secs   av.it.:  15.7
      thresh= 4.542E-08 alpha_mix =  0.700 |ddv_scf|^2 =  2.809E-15

      iter #   7 total cpu time :  1250.7 secs   av.it.:  15.1
      thresh= 5.300E-09 alpha_mix =  0.700 |ddv_scf|^2 =  6.693E-17

     End of self-consistent calculation

     Convergence has been achieved 


     Representation #   7 mode #   7

     Self-consistent Calculation

      iter #   1 total cpu time :  1254.7 secs   av.it.:   6.7
      thresh= 1.000E-02 alpha_mix =  0.700 |ddv_scf|^2 =  3.789E-07

      iter #   2 total cpu time :  1260.5 secs   av.it.:  15.3
      thresh= 6.155E-05 alpha_mix =  0.700 |ddv_scf|^2 =  1.004E-06

      iter #   3 total cpu time :  1266.0 secs   av.it.:  14.1
      thresh= 1.002E-04 alpha_mix =  0.700 |ddv_scf|^2 =  1.604E-08

      iter #   4 total cpu time :  1271.7 secs   av.it.:  14.4
      thresh= 1.267E-05 alpha_mix =  0.700 |ddv_scf|^2 =  1.863E-10

      iter #   5 total cpu time :  1277.5 secs   av.it.:  15.3
      thresh= 1.365E-06 alpha_mix =  0.700 |ddv_scf|^2 =  5.378E-11

      iter #   6 total cpu time :  1282.9 secs   av.it.:  15.0
      thresh= 7.333E-07 alpha_mix =  0.700 |ddv_scf|^2 =  3.659E-12

      iter #   7 total cpu time :  1290.3 secs   av.it.:  15.0
      thresh= 1.913E-07 alpha_mix =  0.700 |ddv_scf|^2 =  1.811E-14

      iter #   8 total cpu time :  1295.8 secs   av.it.:  14.9
      thresh= 1.346E-08 alpha_mix =  0.700 |ddv_scf|^2 =  1.615E-15

      iter #   9 total cpu time :  1301.4 secs   av.it.:  15.3
      thresh= 4.019E-09 alpha_mix =  0.700 |ddv_scf|^2 =  2.348E-15

      iter #  10 total cpu time :  1306.8 secs   av.it.:  14.1
      thresh= 4.846E-09 alpha_mix =  0.700 |ddv_scf|^2 =  2.292E-17

     End of self-consistent calculation

     Convergence has been achieved 


     Representation #   8 mode #   8

     Self-consistent Calculation

      iter #   1 total cpu time :  1311.3 secs   av.it.:   8.7
      thresh= 1.000E-02 alpha_mix =  0.700 |ddv_scf|^2 =  2.975E-06

      iter #   2 total cpu time :  1317.0 secs   av.it.:  15.8
      thresh= 1.725E-04 alpha_mix =  0.700 |ddv_scf|^2 =  8.936E-06

      iter #   3 total cpu time :  1323.2 secs   av.it.:  14.0
      thresh= 2.989E-04 alpha_mix =  0.700 |ddv_scf|^2 =  8.867E-08

      iter #   4 total cpu time :  1328.8 secs   av.it.:  15.3
      thresh= 2.978E-05 alpha_mix =  0.700 |ddv_scf|^2 =  1.063E-08

      iter #   5 total cpu time :  1334.8 secs   av.it.:  15.3
      thresh= 1.031E-05 alpha_mix =  0.700 |ddv_scf|^2 =  2.921E-10

      iter #   6 total cpu time :  1340.3 secs   av.it.:  15.3
      thresh= 1.709E-06 alpha_mix =  0.700 |ddv_scf|^2 =  3.676E-12

      iter #   7 total cpu time :  1348.1 secs   av.it.:  14.9
      thresh= 1.917E-07 alpha_mix =  0.700 |ddv_scf|^2 =  9.032E-14

      iter #   8 total cpu time :  1354.0 secs   av.it.:  14.8
      thresh= 3.005E-08 alpha_mix =  0.700 |ddv_scf|^2 =  2.998E-15

      iter #   9 total cpu time :  1359.5 secs   av.it.:  15.2
      thresh= 5.476E-09 alpha_mix =  0.700 |ddv_scf|^2 =  4.343E-15

      iter #  10 total cpu time :  1365.0 secs   av.it.:  14.0
      thresh= 6.590E-09 alpha_mix =  0.700 |ddv_scf|^2 =  1.721E-17

     End of self-consistent calculation

     Convergence has been achieved 


     Representation #   9 mode #   9

     Self-consistent Calculation

      iter #   1 total cpu time :  1368.9 secs   av.it.:   6.8
      thresh= 1.000E-02 alpha_mix =  0.700 |ddv_scf|^2 =  3.205E-07

      iter #   2 total cpu time :  1374.5 secs   av.it.:  15.5
      thresh= 5.662E-05 alpha_mix =  0.700 |ddv_scf|^2 =  9.240E-07

      iter #   3 total cpu time :  1380.1 secs   av.it.:  14.2
      thresh= 9.612E-05 alpha_mix =  0.700 |ddv_scf|^2 =  1.031E-08

      iter #   4 total cpu time :  1386.9 secs   av.it.:  14.8
      thresh= 1.015E-05 alpha_mix =  0.700 |ddv_scf|^2 =  1.580E-10

      iter #   5 total cpu time :  1392.5 secs   av.it.:  15.3
      thresh= 1.257E-06 alpha_mix =  0.700 |ddv_scf|^2 =  3.282E-12

      iter #   6 total cpu time :  1398.0 secs   av.it.:  15.5
      thresh= 1.812E-07 alpha_mix =  0.700 |ddv_scf|^2 =  7.564E-13

      iter #   7 total cpu time :  1405.0 secs   av.it.:  14.5
      thresh= 8.697E-08 alpha_mix =  0.700 |ddv_scf|^2 =  1.443E-14

      iter #   8 total cpu time :  1411.4 secs   av.it.:  15.2
      thresh= 1.201E-08 alpha_mix =  0.700 |ddv_scf|^2 =  2.166E-15

      iter #   9 total cpu time :  1416.9 secs   av.it.:  15.2
      thresh= 4.654E-09 alpha_mix =  0.700 |ddv_scf|^2 =  2.577E-15

      iter #  10 total cpu time :  1422.3 secs   av.it.:  14.1
      thresh= 5.076E-09 alpha_mix =  0.700 |ddv_scf|^2 =  6.788E-18

     End of self-consistent calculation

     Convergence has been achieved 
 
     Number of q in the star =    1
     List of q in the star:
          1   0.000000000   0.384916299   0.000000000
     In addition there is the -q list: 
          1   0.000000000  -0.384916299   0.000000000

     Diagonalizing the dynamical matrix

     q = (    0.000000000   0.384916299   0.000000000 ) 

 **************************************************************************
     freq (    1) =      -2.116211 [THz] =     -70.589203 [cm-1]
     freq (    2) =       2.031357 [THz] =      67.758771 [cm-1]
     freq (    3) =       2.393197 [THz] =      79.828472 [cm-1]
     freq (    4) =       4.456892 [THz] =     148.665904 [cm-1]
     freq (    5) =       4.890329 [THz] =     163.123811 [cm-1]
     freq (    6) =       5.100222 [THz] =     170.125090 [cm-1]
     freq (    7) =       5.340180 [THz] =     178.129234 [cm-1]
     freq (    8) =       6.878987 [THz] =     229.458303 [cm-1]
     freq (    9) =       7.294593 [THz] =     243.321438 [cm-1]
 **************************************************************************

     Mode symmetry, C_2v (mm2)  point group:

     freq (   1-   1) =        -70.6  [cm-1]   --> A_1  D_1  S_1      
     freq (   2-   2) =         67.8  [cm-1]   --> B_2  D_4  S_4      
     freq (   3-   3) =         79.8  [cm-1]   --> B_1  D_3  S_3      
     freq (   4-   4) =        148.7  [cm-1]   --> A_2  D_2  S_2      
     freq (   5-   5) =        163.1  [cm-1]   --> B_1  D_3  S_3      
     freq (   6-   6) =        170.1  [cm-1]   --> B_2  D_4  S_4      
     freq (   7-   7) =        178.1  [cm-1]   --> A_1  D_1  S_1      
     freq (   8-   8) =        229.5  [cm-1]   --> A_1  D_1  S_1      
     freq (   9-   9) =        243.3  [cm-1]   --> B_2  D_4  S_4      

     Calculation of q =    0.0000000  -0.5773744   0.0000000
 
     Parallelization info
     --------------------
     sticks:   dense  smooth     PW     G-vecs:    dense   smooth      PW
     Min          83      42     14                16187     5716    1066
     Max          84      43     15                16218     5732    1074
     Sum        1417     721    241               275365    97333   18201
 
     Using Slab Decomposition
 

     Title: 
     phonon dispersion of undistorted 1H-NbSe2 (metal, no LO-TO)                


     bravais-lattice index     =            0
     lattice parameter (alat)  =       6.5628  a.u.
     unit-cell volume          =    1550.6296 (a.u.)^3
     number of atoms/cell      =            3
     number of atomic types    =            2
     number of electrons       =        25.00
     number of Kohn-Sham states=           17
     kinetic-energy cutoff     =      60.0000  Ry
     charge density cutoff     =     480.0000  Ry
     Exchange-correlation= PBE
                           (   1   4   3   4   0   0   0)

     celldm(1)=   6.562768  celldm(2)=   0.000000  celldm(3)=   0.000000
     celldm(4)=   0.000000  celldm(5)=   0.000000  celldm(6)=   0.000000

     crystal axes: (cart. coord. in units of alat)
               a(1) = (   1.000000   0.000000   0.000000 )  
               a(2) = (  -0.500000   0.865989   0.000000 )  
               a(3) = (   0.000000   0.000000   6.334823 )  

     reciprocal axes: (cart. coord. in units 2 pi/alat)
               b(1) = (  1.000000  0.577374  0.000000 )  
               b(2) = (  0.000000  1.154749  0.000000 )  
               b(3) = (  0.000000  0.000000  0.157858 )  


     PseudoPot. # 1 for Nb read from file:
     ../pseudos/Nb.pbe-spn-kjpaw_psl.1.0.0.UPF
     MD5 check sum: dcedcbb129af9a7271e4748e5febedb1
     Pseudo is Projector augmented-wave + core cor, Zval = 13.0
     Generated using &quot;atomic&quot; code by A. Dal Corso  v.6.2.2
     Shape of augmentation charge: PSQ
     Using radial grid of 1227 points,  6 beta functions with: 
                l(1) =   0
                l(2) =   0
                l(3) =   1
                l(4) =   1
                l(5) =   2
                l(6) =   2
     Q(r) pseudized with 0 coefficients 


     PseudoPot. # 2 for Se read from file:
     ../pseudos/Se.pbe-n-kjpaw_psl.1.0.0.UPF
     MD5 check sum: 12232cb78b362a7b0fca8da9cb95fd5e
     Pseudo is Projector augmented-wave + core cor, Zval =  6.0
     Generated using &quot;atomic&quot; code by A. Dal Corso  v.6.3
     Shape of augmentation charge: PSQ
     Using radial grid of 1211 points,  4 beta functions with: 
                l(1) =   0
                l(2) =   0
                l(3) =   1
                l(4) =   1
     Q(r) pseudized with 0 coefficients 


     atomic species   valence    mass     pseudopotential
     Nb               13.00    92.90638     Nb( 1.00)
     Se                6.00    78.97100     Se( 1.00)

      4 Sym. Ops. (no inversion) found



   Cartesian axes

     site n.     atom                  positions (alat units)
[...]
      thresh= 2.584E-08 alpha_mix =  0.700 |ddv_scf|^2 =  1.117E-16

      iter #  12 total cpu time :  9034.2 secs   av.it.:  16.6
      thresh= 1.057E-09 alpha_mix =  0.700 |ddv_scf|^2 =  1.217E-17

     End of self-consistent calculation

     Convergence has been achieved 


     Representation #   3 mode #   3

     Self-consistent Calculation

      iter #   1 total cpu time :  9040.7 secs   av.it.:   8.7
      thresh= 1.000E-02 alpha_mix =  0.700 |ddv_scf|^2 =  1.433E-06

      iter #   2 total cpu time :  9050.3 secs   av.it.:  16.8
      thresh= 1.197E-04 alpha_mix =  0.700 |ddv_scf|^2 =  1.090E-05

      iter #   3 total cpu time :  9058.8 secs   av.it.:  14.7
      thresh= 3.302E-04 alpha_mix =  0.700 |ddv_scf|^2 =  4.585E-06

      iter #   4 total cpu time :  9068.8 secs   av.it.:  14.6
      thresh= 2.141E-04 alpha_mix =  0.700 |ddv_scf|^2 =  7.713E-08

      iter #   5 total cpu time :  9078.1 secs   av.it.:  15.7
      thresh= 2.777E-05 alpha_mix =  0.700 |ddv_scf|^2 =  1.608E-08

      iter #   6 total cpu time :  9087.9 secs   av.it.:  15.5
      thresh= 1.268E-05 alpha_mix =  0.700 |ddv_scf|^2 =  6.214E-10

      iter #   7 total cpu time :  9097.3 secs   av.it.:  16.1
      thresh= 2.493E-06 alpha_mix =  0.700 |ddv_scf|^2 =  2.972E-11

      iter #   8 total cpu time :  9106.6 secs   av.it.:  16.1
      thresh= 5.452E-07 alpha_mix =  0.700 |ddv_scf|^2 =  7.078E-13

      iter #   9 total cpu time :  9115.8 secs   av.it.:  16.4
      thresh= 8.413E-08 alpha_mix =  0.700 |ddv_scf|^2 =  4.458E-12

      iter #  10 total cpu time :  9124.5 secs   av.it.:  14.3
      thresh= 2.112E-07 alpha_mix =  0.700 |ddv_scf|^2 =  3.028E-13

      iter #  11 total cpu time :  9133.0 secs   av.it.:  14.9
      thresh= 5.503E-08 alpha_mix =  0.700 |ddv_scf|^2 =  9.244E-15

      iter #  12 total cpu time :  9141.9 secs   av.it.:  15.2
      thresh= 9.615E-09 alpha_mix =  0.700 |ddv_scf|^2 =  2.233E-16

      iter #  13 total cpu time :  9152.3 secs   av.it.:  15.5
      thresh= 1.494E-09 alpha_mix =  0.700 |ddv_scf|^2 =  3.526E-18

     End of self-consistent calculation

     Convergence has been achieved 


     Representation #   4 mode #   4

     Self-consistent Calculation

      iter #   1 total cpu time :  9158.1 secs   av.it.:   7.5
      thresh= 1.000E-02 alpha_mix =  0.700 |ddv_scf|^2 =  2.297E-06

      iter #   2 total cpu time :  9170.0 secs   av.it.:  16.7
      thresh= 1.515E-04 alpha_mix =  0.700 |ddv_scf|^2 =  7.973E-05

      iter #   3 total cpu time :  9178.2 secs   av.it.:  13.9
      thresh= 8.929E-04 alpha_mix =  0.700 |ddv_scf|^2 =  3.382E-07

      iter #   4 total cpu time :  9187.7 secs   av.it.:  15.1
      thresh= 5.816E-05 alpha_mix =  0.700 |ddv_scf|^2 =  6.629E-09

      iter #   5 total cpu time :  9196.8 secs   av.it.:  15.7
      thresh= 8.142E-06 alpha_mix =  0.700 |ddv_scf|^2 =  7.580E-10

      iter #   6 total cpu time :  9206.8 secs   av.it.:  15.5
      thresh= 2.753E-06 alpha_mix =  0.700 |ddv_scf|^2 =  3.821E-11

      iter #   7 total cpu time :  9217.0 secs   av.it.:  16.2
      thresh= 6.182E-07 alpha_mix =  0.700 |ddv_scf|^2 =  8.798E-12

      iter #   8 total cpu time :  9227.2 secs   av.it.:  15.6
      thresh= 2.966E-07 alpha_mix =  0.700 |ddv_scf|^2 =  1.601E-11

      iter #   9 total cpu time :  9235.8 secs   av.it.:  14.2
      thresh= 4.001E-07 alpha_mix =  0.700 |ddv_scf|^2 =  1.399E-12

      iter #  10 total cpu time :  9245.0 secs   av.it.:  15.0
      thresh= 1.183E-07 alpha_mix =  0.700 |ddv_scf|^2 =  8.603E-15

      iter #  11 total cpu time :  9253.6 secs   av.it.:  15.7
      thresh= 9.275E-09 alpha_mix =  0.700 |ddv_scf|^2 =  2.692E-16

      iter #  12 total cpu time :  9263.0 secs   av.it.:  16.1
      thresh= 1.641E-09 alpha_mix =  0.700 |ddv_scf|^2 =  8.422E-17

     End of self-consistent calculation

     Convergence has been achieved 


     Representation #   5 mode #   5

     Self-consistent Calculation

      iter #   1 total cpu time :  9271.1 secs   av.it.:   9.2
      thresh= 1.000E-02 alpha_mix =  0.700 |ddv_scf|^2 =  7.746E-06

      iter #   2 total cpu time :  9282.2 secs   av.it.:  16.7
      thresh= 2.783E-04 alpha_mix =  0.700 |ddv_scf|^2 =  1.506E-04

      iter #   3 total cpu time :  9290.6 secs   av.it.:  14.2
      thresh= 1.227E-03 alpha_mix =  0.700 |ddv_scf|^2 =  9.925E-06

      iter #   4 total cpu time :  9299.6 secs   av.it.:  14.8
      thresh= 3.150E-04 alpha_mix =  0.700 |ddv_scf|^2 =  1.218E-07

      iter #   5 total cpu time :  9309.1 secs   av.it.:  15.7
      thresh= 3.490E-05 alpha_mix =  0.700 |ddv_scf|^2 =  2.311E-08

      iter #   6 total cpu time :  9318.0 secs   av.it.:  15.5
      thresh= 1.520E-05 alpha_mix =  0.700 |ddv_scf|^2 =  5.213E-10

      iter #   7 total cpu time :  9328.5 secs   av.it.:  16.4
      thresh= 2.283E-06 alpha_mix =  0.700 |ddv_scf|^2 =  5.910E-11

      iter #   8 total cpu time :  9339.2 secs   av.it.:  15.9
      thresh= 7.687E-07 alpha_mix =  0.700 |ddv_scf|^2 =  2.061E-11

      iter #   9 total cpu time :  9348.1 secs   av.it.:  15.0
      thresh= 4.540E-07 alpha_mix =  0.700 |ddv_scf|^2 =  2.367E-11

      iter #  10 total cpu time :  9356.4 secs   av.it.:  14.3
      thresh= 4.866E-07 alpha_mix =  0.700 |ddv_scf|^2 =  1.385E-13

      iter #  11 total cpu time :  9365.7 secs   av.it.:  15.5
      thresh= 3.722E-08 alpha_mix =  0.700 |ddv_scf|^2 =  2.077E-14

      iter #  12 total cpu time :  9374.1 secs   av.it.:  15.0
      thresh= 1.441E-08 alpha_mix =  0.700 |ddv_scf|^2 =  1.783E-16

      iter #  13 total cpu time :  9384.0 secs   av.it.:  15.5
      thresh= 1.335E-09 alpha_mix =  0.700 |ddv_scf|^2 =  1.660E-17

     End of self-consistent calculation

     Convergence has been achieved 


     Representation #   6 mode #   6

     Self-consistent Calculation

      iter #   1 total cpu time :  9391.4 secs   av.it.:   6.7
      thresh= 1.000E-02 alpha_mix =  0.700 |ddv_scf|^2 =  1.396E-07

      iter #   2 total cpu time :  9400.2 secs   av.it.:  16.0
      thresh= 3.736E-05 alpha_mix =  0.700 |ddv_scf|^2 =  1.664E-07

      iter #   3 total cpu time :  9408.7 secs   av.it.:  15.0
      thresh= 4.080E-05 alpha_mix =  0.700 |ddv_scf|^2 =  4.786E-09

      iter #   4 total cpu time :  9417.2 secs   av.it.:  15.0
      thresh= 6.918E-06 alpha_mix =  0.700 |ddv_scf|^2 =  1.188E-10

      iter #   5 total cpu time :  9426.6 secs   av.it.:  15.7
      thresh= 1.090E-06 alpha_mix =  0.700 |ddv_scf|^2 =  1.023E-11

      iter #   6 total cpu time :  9435.5 secs   av.it.:  15.7
      thresh= 3.199E-07 alpha_mix =  0.700 |ddv_scf|^2 =  2.654E-13

      iter #   7 total cpu time :  9446.3 secs   av.it.:  15.6
      thresh= 5.151E-08 alpha_mix =  0.700 |ddv_scf|^2 =  6.663E-15

      iter #   8 total cpu time :  9455.5 secs   av.it.:  15.9
      thresh= 8.163E-09 alpha_mix =  0.700 |ddv_scf|^2 =  3.539E-16

      iter #   9 total cpu time :  9463.7 secs   av.it.:  14.8
      thresh= 1.881E-09 alpha_mix =  0.700 |ddv_scf|^2 =  1.801E-17

     End of self-consistent calculation

     Convergence has been achieved 


     Representation #   7 mode #   7

     Self-consistent Calculation

      iter #   1 total cpu time :  9469.6 secs   av.it.:   6.6
      thresh= 1.000E-02 alpha_mix =  0.700 |ddv_scf|^2 =  5.321E-08

      iter #   2 total cpu time :  9478.4 secs   av.it.:  15.7
      thresh= 2.307E-05 alpha_mix =  0.700 |ddv_scf|^2 =  1.221E-08

      iter #   3 total cpu time :  9487.7 secs   av.it.:  15.8
      thresh= 1.105E-05 alpha_mix =  0.700 |ddv_scf|^2 =  5.093E-09

      iter #   4 total cpu time :  9496.9 secs   av.it.:  14.9
      thresh= 7.136E-06 alpha_mix =  0.700 |ddv_scf|^2 =  2.979E-10

      iter #   5 total cpu time :  9507.7 secs   av.it.:  15.4
      thresh= 1.726E-06 alpha_mix =  0.700 |ddv_scf|^2 =  2.385E-11

      iter #   6 total cpu time :  9516.8 secs   av.it.:  15.2
      thresh= 4.883E-07 alpha_mix =  0.700 |ddv_scf|^2 =  3.572E-12

      iter #   7 total cpu time :  9525.6 secs   av.it.:  14.7
      thresh= 1.890E-07 alpha_mix =  0.700 |ddv_scf|^2 =  5.649E-15

      iter #   8 total cpu time :  9534.4 secs   av.it.:  15.9
      thresh= 7.516E-09 alpha_mix =  0.700 |ddv_scf|^2 =  3.298E-16

      iter #   9 total cpu time :  9543.7 secs   av.it.:  15.4
      thresh= 1.816E-09 alpha_mix =  0.700 |ddv_scf|^2 =  1.896E-17

     End of self-consistent calculation

     Convergence has been achieved 


     Representation #   8 mode #   8

     Self-consistent Calculation

      iter #   1 total cpu time :  9549.9 secs   av.it.:   8.7
      thresh= 1.000E-02 alpha_mix =  0.700 |ddv_scf|^2 =  1.464E-06

      iter #   2 total cpu time :  9559.6 secs   av.it.:  16.0
      thresh= 1.210E-04 alpha_mix =  0.700 |ddv_scf|^2 =  1.487E-06

      iter #   3 total cpu time :  9569.8 secs   av.it.:  15.2
      thresh= 1.220E-04 alpha_mix =  0.700 |ddv_scf|^2 =  7.760E-08

      iter #   4 total cpu time :  9578.6 secs   av.it.:  15.5
      thresh= 2.786E-05 alpha_mix =  0.700 |ddv_scf|^2 =  1.845E-08

      iter #   5 total cpu time :  9587.4 secs   av.it.:  15.3
      thresh= 1.358E-05 alpha_mix =  0.700 |ddv_scf|^2 =  2.360E-10

      iter #   6 total cpu time :  9596.4 secs   av.it.:  15.9
      thresh= 1.536E-06 alpha_mix =  0.700 |ddv_scf|^2 =  2.730E-12

      iter #   7 total cpu time :  9605.8 secs   av.it.:  15.7
      thresh= 1.652E-07 alpha_mix =  0.700 |ddv_scf|^2 =  1.201E-13

      iter #   8 total cpu time :  9615.5 secs   av.it.:  15.3
      thresh= 3.465E-08 alpha_mix =  0.700 |ddv_scf|^2 =  2.398E-15

      iter #   9 total cpu time :  9624.7 secs   av.it.:  15.7
      thresh= 4.897E-09 alpha_mix =  0.700 |ddv_scf|^2 =  9.608E-17

     End of self-consistent calculation

     Convergence has been achieved 


     Representation #   9 mode #   9

     Self-consistent Calculation

      iter #   1 total cpu time :  9631.7 secs   av.it.:   6.7
      thresh= 1.000E-02 alpha_mix =  0.700 |ddv_scf|^2 =  1.546E-07

      iter #   2 total cpu time :  9640.4 secs   av.it.:  15.9
      thresh= 3.931E-05 alpha_mix =  0.700 |ddv_scf|^2 =  1.509E-07

      iter #   3 total cpu time :  9649.0 secs   av.it.:  15.1
      thresh= 3.885E-05 alpha_mix =  0.700 |ddv_scf|^2 =  6.430E-09

      iter #   4 total cpu time :  9657.8 secs   av.it.:  14.9
      thresh= 8.019E-06 alpha_mix =  0.700 |ddv_scf|^2 =  1.361E-10

      iter #   5 total cpu time :  9668.1 secs   av.it.:  15.7
      thresh= 1.167E-06 alpha_mix =  0.700 |ddv_scf|^2 =  1.195E-11

      iter #   6 total cpu time :  9677.1 secs   av.it.:  15.7
      thresh= 3.457E-07 alpha_mix =  0.700 |ddv_scf|^2 =  5.707E-13

      iter #   7 total cpu time :  9687.1 secs   av.it.:  15.5
      thresh= 7.554E-08 alpha_mix =  0.700 |ddv_scf|^2 =  5.172E-15

      iter #   8 total cpu time :  9696.2 secs   av.it.:  15.9
      thresh= 7.191E-09 alpha_mix =  0.700 |ddv_scf|^2 =  2.276E-16

      iter #   9 total cpu time :  9705.5 secs   av.it.:  15.1
      thresh= 1.509E-09 alpha_mix =  0.700 |ddv_scf|^2 =  9.750E-18

     End of self-consistent calculation

     Convergence has been achieved 
 
     Number of q in the star =    2
     List of q in the star:
          1  -0.500000000  -0.096229075   0.000000000
          2   0.500000000  -0.096229075   0.000000000
     In addition there is the -q list: 
          1   0.500000000   0.096229075   0.000000000
          2  -0.500000000   0.096229075   0.000000000

     Diagonalizing the dynamical matrix

     q = (   -0.500000000  -0.096229075   0.000000000 ) 

 **************************************************************************
     freq (    1) =       1.701354 [THz] =      56.751044 [cm-1]
     freq (    2) =       2.665916 [THz] =      88.925370 [cm-1]
     freq (    3) =       3.341525 [THz] =     111.461284 [cm-1]
     freq (    4) =       4.838733 [THz] =     161.402755 [cm-1]
     freq (    5) =       5.119280 [THz] =     170.760788 [cm-1]
     freq (    6) =       5.219650 [THz] =     174.108786 [cm-1]
     freq (    7) =       5.580187 [THz] =     186.135015 [cm-1]
     freq (    8) =       6.660854 [THz] =     222.182175 [cm-1]
     freq (    9) =       7.313526 [THz] =     243.952952 [cm-1]
 **************************************************************************

     Mode symmetry, C_s (m)     point group:

     freq (   1-   1) =         56.8  [cm-1]   --> A'                 
     freq (   2-   2) =         88.9  [cm-1]   --> A''                
     freq (   3-   3) =        111.5  [cm-1]   --> A'                 
     freq (   4-   4) =        161.4  [cm-1]   --> A''                
     freq (   5-   5) =        170.8  [cm-1]   --> A'                 
     freq (   6-   6) =        174.1  [cm-1]   --> A''                
     freq (   7-   7) =        186.1  [cm-1]   --> A'                 
     freq (   8-   8) =        222.2  [cm-1]   --> A''                
     freq (   9-   9) =        244.0  [cm-1]   --> A'                 
 
     init_run     :     15.60s CPU     19.01s WALL (      12 calls)
     electrons    :    158.88s CPU    167.91s WALL (      12 calls)

     Called by init_run:
     wfcinit      :      0.01s CPU      0.88s WALL (      12 calls)
     potinit      :      3.04s CPU      4.82s WALL (      12 calls)
     hinit0       :      0.74s CPU      0.77s WALL (      12 calls)

     Called by electrons:
     c_bands      :    158.65s CPU    167.64s WALL (      12 calls)
     v_of_rho     :      0.72s CPU      0.76s WALL (      13 calls)
     newd         :      0.33s CPU      0.51s WALL (      13 calls)
     PAW_pot      :      1.94s CPU      1.97s WALL (      13 calls)

     Called by c_bands:
     init_us_2    :     12.78s CPU     17.58s WALL (   23076 calls)
     cegterg      :    126.81s CPU    133.61s WALL (     360 calls)

     Called by *egterg:
     cdiaghg      :     20.70s CPU     21.22s WALL (    5939 calls)
     h_psi        :   4877.96s CPU   5155.86s WALL (  481407 calls)
     s_psi        :    353.95s CPU    383.66s WALL (  975091 calls)
     g_psi        :      0.32s CPU      0.34s WALL (    5579 calls)

     Called by h_psi:
     h_psi:calbec :    216.80s CPU    228.49s WALL (  481407 calls)
     vloc_psi     :   4442.00s CPU   4694.73s WALL (  481407 calls)
                                        0.00s GPU  (  481407 calls)
     add_vuspsi   :    178.26s CPU    192.68s WALL (  481407 calls)

     General routines
     calbec       :    423.63s CPU    457.72s WALL ( 1004671 calls)
     fft          :     62.28s CPU     64.80s WALL (   21947 calls)
     ffts         :      7.38s CPU      7.72s WALL (    6207 calls)
     fftw         :   4571.67s CPU   4826.05s WALL ( 8017777 calls)
     interpolate  :     11.58s CPU     11.98s WALL (    2679 calls)
     davcio       :     17.70s CPU     68.33s WALL (  115152 calls)
 
     Parallel routines
 
     PHONON       :      2h31m CPU      2h41m WALL

     INITIALIZATION: 
     phq_setup    :      1.83s CPU      2.44s WALL (      13 calls)
     phq_init     :     87.32s CPU     91.54s WALL (      13 calls)
 
     phq_init     :     87.32s CPU     91.54s WALL (      13 calls)
     set_drhoc    :      0.03s CPU      0.04s WALL (      39 calls)
     init_vloc    :      0.02s CPU      0.03s WALL (      13 calls)
     init_us_1    :      0.27s CPU      0.29s WALL (      13 calls)
     init_us_2    :     12.78s CPU     17.58s WALL (   23076 calls)
     newd         :      0.33s CPU      0.51s WALL (      13 calls)
     dvanqq       :     29.00s CPU     29.30s WALL (      13 calls)
     drho         :     53.55s CPU     56.18s WALL (      13 calls)
     drhous       :     23.21s CPU     24.58s WALL (      13 calls)
     nldyntot     :      0.56s CPU      0.57s WALL (      13 calls)
 
     DYNAMICAL MATRIX:
     dynmat0      :      3.76s CPU      4.09s WALL (      13 calls)
     dynmat_us    :      2.69s CPU      2.86s WALL (      13 calls)
     addusdynmat  :      0.01s CPU      0.01s WALL (      13 calls)
     d2ionq       :      0.13s CPU      0.13s WALL (      13 calls)
     dynmatcc     :      0.78s CPU      0.80s WALL (      13 calls)
     phqscf       :   8815.42s CPU   9409.46s WALL (      13 calls)
     dynmatrix    :      0.10s CPU      0.40s WALL (      13 calls)
 
     phqscf       :   8815.42s CPU   9409.46s WALL (      13 calls)
     solve_linter :   8804.91s CPU   9390.66s WALL (     117 calls)
     dfpt_kernel  :   8741.32s CPU   9316.45s WALL (     117 calls)
     sth_kernel   :   7249.69s CPU   7670.05s WALL (    1264 calls)
     h_prec       :      4.96s CPU      5.38s WALL (   18576 calls)
     apply_dpot_b :    297.47s CPU    320.31s WALL (   16902 calls)
     ortho        :     38.52s CPU     40.54s WALL (   18576 calls)
     cgsolve      :   5911.45s CPU   6262.39s WALL (   18576 calls)
     incdrhoscf   :    361.62s CPU    384.82s WALL (   18576 calls)
                                        0.00s GPU  (   18576 calls)
     addusddens   :    276.04s CPU    278.85s WALL (    1381 calls)
     dv_of_drho   :     51.38s CPU     52.85s WALL (    1264 calls)
     mix_pot      :     27.45s CPU     89.69s WALL (    1264 calls)
     ef_shift     :      0.73s CPU      0.81s WALL (      81 calls)
     ef_shift_wfc :      0.02s CPU      0.06s WALL (       9 calls)
     localdos     :      2.44s CPU      2.52s WALL (       9 calls)
     drhodv       :      9.51s CPU     10.30s WALL (     117 calls)
     psymdvscf    :    457.00s CPU    472.46s WALL (    1264 calls)
     newdq        :    239.14s CPU    240.94s WALL (    1264 calls)
     adddvscf     :     14.46s CPU     15.29s WALL (   16902 calls)
     com_dvloc    :      4.95s CPU      5.29s WALL (    2844 calls)
                                        0.00s GPU  (    2844 calls)
     addcore      :      5.08s CPU      5.30s WALL (    1287 calls)
                                        0.00s GPU  (    1287 calls)
     drhodvus     :      1.55s CPU      3.35s WALL (     117 calls)
 
     dvqpsi_us    :     48.24s CPU     50.69s WALL (    1674 calls)
                                        0.00s GPU  (    1674 calls)
     dvqpsi_us_on :      7.16s CPU      7.30s WALL (    1674 calls)
 
     add_vuspsi   :    178.26s CPU    192.68s WALL (  481407 calls)
     addusdbec    :     13.47s CPU     13.95s WALL (   20250 calls)
 
     drhodvus     :      1.55s CPU      3.35s WALL (     117 calls)
 
      General routines
     calbec       :    423.63s CPU    457.72s WALL ( 1004671 calls)
     fft          :     62.28s CPU     64.80s WALL (   21947 calls)
     ffts         :      7.38s CPU      7.72s WALL (    6207 calls)
     fftw         :   4571.67s CPU   4826.05s WALL ( 8017777 calls)
     davcio       :     17.70s CPU     68.33s WALL (  115152 calls)
     write_rec    :     27.11s CPU     97.39s WALL (    1381 calls)
 
      Additional routines
     ch_psi       :   5728.25s CPU   6062.56s WALL (  475108 calls)
     last         :    705.91s CPU    754.86s WALL (  475108 calls)
     Hesh         :     16.79s CPU     19.71s WALL (  475108 calls)
     ch_psi_all_k :    671.06s CPU    717.50s WALL (  475108 calls)
                                        0.00s GPU  (  475108 calls)
     ch_psi_calbe :    206.05s CPU    214.80s WALL (  475108 calls)
                                        0.00s GPU  (  475108 calls)
     h_psi_bgrp   :   4886.81s CPU   5163.42s WALL (  481407 calls)
     h_psi        :   4877.96s CPU   5155.86s WALL (  481407 calls)
     h_psi:pot    :   4857.25s CPU   5132.61s WALL (  481407 calls)
     h_psi:calbec :    216.80s CPU    228.49s WALL (  481407 calls)
     s_psi_bgrp   :    398.65s CPU    426.05s WALL (  975091 calls)
     s_psi        :    353.95s CPU    383.66s WALL (  975091 calls)
 
 
     PHONON       :      2h31m CPU      2h41m WALL

 
   This run was terminated on:   3:45:55  21Jun2026            

=------------------------------------------------------------------------------=
   JOB DONE.
=------------------------------------------------------------------------------=
