
     Program PWSCF v.7.5 starts on 20Jun2026 at 20:35:59 

     This program is part of the open-source Quantum ESPRESSO suite
     for quantum simulation of materials; please cite
         "P. Giannozzi et al., J. Phys.:Condens. Matter 21 395502 (2009);
         "P. Giannozzi et al., J. Phys.:Condens. Matter 29 465901 (2017);
         "P. Giannozzi et al., J. Chem. Phys. 152 154105 (2020);
          URL http://www.quantum-espresso.org", 
     in publications or presentations arising from this work. More details at
     http://www.quantum-espresso.org/quote

     Parallel version (MPI), running on     8 processors

     MPI processes distributed on     1 nodes
     299674 MiB available memory on the printing compute node when the environment starts
 
     Waiting for input...
     Reading input from standard input

     Current dimensions of program PWSCF are:
     Max number of different atomic species (ntypx) = 10
     Max number of k-points (npk) =  40000
     Max angular momentum in pseudopotentials (lmaxx) =  4
     file Ga.pbe-dn-kjpaw_psl.0.2.upf: wavefunction(s)  4S 3D renormalized
     Message from routine setup:
     using ibrav=0 with symmetry is DISCOURAGED, use correct ibrav instead
 
     K-points division:     npool     =       2
     R & G space division:  proc/nbgrp/npool/nimage =       4
     Subspace diagonalization in iterative solution of the eigenvalue problem:
     a serial algorithm will be used

 
     Parallelization info
     --------------------
     sticks:   dense  smooth     PW     G-vecs:    dense   smooth      PW
     Min         393     192     60                10287     3589     610
     Max         394     193     61                10289     3593     613
     Sum        1573     769    241                41151    14361    2445
 
     Using Slab Decomposition
 


     bravais-lattice index     =            0
     lattice parameter (alat)  =      10.6829  a.u.
     unit-cell volume          =     304.7948 (a.u.)^3
     number of atoms/cell      =            2
     number of atomic types    =            2
     number of electrons       =        18.00
     number of Kohn-Sham states=            9
     kinetic-energy cutoff     =      50.0000  Ry
     charge density cutoff     =     400.0000  Ry
     scf convergence threshold =      1.0E-08
     mixing beta               =       0.7000
     number of iterations used =            8  plain     mixing
     Exchange-correlation= SLA  PW   PBX  PBC
                           (   1   4   3   4   0   0   0)

     celldm(1)=  10.682900  celldm(2)=   0.000000  celldm(3)=   0.000000
     celldm(4)=   0.000000  celldm(5)=   0.000000  celldm(6)=   0.000000

     crystal axes: (cart. coord. in units of alat)
               a(1) = (  -0.500000   0.000000   0.500000 )  
               a(2) = (   0.000000   0.500000   0.500000 )  
               a(3) = (  -0.500000   0.500000   0.000000 )  

     reciprocal axes: (cart. coord. in units 2 pi/alat)
               b(1) = ( -1.000000 -1.000000  1.000000 )  
               b(2) = (  1.000000  1.000000  1.000000 )  
               b(3) = ( -1.000000  1.000000 -1.000000 )  


     PseudoPot. # 1 for Ga read from file:
     ../pseudos/Ga.pbe-dn-kjpaw_psl.0.2.upf
     MD5 check sum: f703b3f64ba021741ea9c16c693bf590
     Pseudo is Projector augmented-wave + core cor, Zval = 13.0
     Generated using "atomic" code by A. Dal Corso  v.5.0.99 svn rev. 10869
     Shape of augmentation charge: BESSEL
     Using radial grid of 1205 points,  6 beta functions with: 
                l(1) =   0
                l(2) =   0
                l(3) =   1
                l(4) =   1
                l(5) =   2
                l(6) =   2
     Q(r) pseudized with 0 coefficients 


     PseudoPot. # 2 for As read from file:
     ../pseudos/As.pbe-n-kjpaw_psl.0.2.upf
     MD5 check sum: 076d91deeb42e24e5cc35739acc2a16c
     Pseudo is Projector augmented-wave + core cor, Zval =  5.0
     Generated using "atomic" code by A. Dal Corso  v.5.0.99 svn rev. 10869
     Shape of augmentation charge: PSQ
     Using radial grid of 1209 points,  4 beta functions with: 
                l(1) =   0
                l(2) =   0
                l(3) =   1
                l(4) =   1
     Q(r) pseudized with 0 coefficients 


     atomic species   valence    mass     pseudopotential
     Ga               13.00    69.72300     Ga( 1.00)
     As                5.00    74.92160     As( 1.00)

     24 Sym. Ops. (no inversion) found



   Cartesian axes

     site n.     atom                  positions (alat units)
         1        Ga     tau(   1) = (   0.0000000   0.0000000   0.0000000  )
         2        As     tau(   2) = (   0.2500000   0.2500000   0.2500000  )

     number of k points=    16
                       cart. coord. in units 2pi/alat
        k(    1) = (   0.0000000   0.0000000   0.0000000), wk =   0.0092593
        k(    2) = (  -0.1666667   0.1666667  -0.1666667), wk =   0.0740741
        k(    3) = (  -0.3333333   0.3333333  -0.3333333), wk =   0.0740741
        k(    4) = (   0.5000000  -0.5000000   0.5000000), wk =   0.0370370
        k(    5) = (   0.0000000   0.3333333   0.0000000), wk =   0.0555556
        k(    6) = (  -0.1666667   0.5000000  -0.1666667), wk =   0.2222222
        k(    7) = (   0.6666667  -0.3333333   0.6666667), wk =   0.2222222
        k(    8) = (   0.5000000  -0.1666667   0.5000000), wk =   0.2222222
        k(    9) = (   0.3333333   0.0000000   0.3333333), wk =   0.1111111
        k(   10) = (   0.0000000   0.6666667   0.0000000), wk =   0.0555556
        k(   11) = (   0.8333333  -0.1666667   0.8333333), wk =   0.2222222
        k(   12) = (   0.6666667  -0.0000000   0.6666667), wk =   0.1111111
        k(   13) = (   0.0000000  -1.0000000   0.0000000), wk =   0.0277778
        k(   14) = (   0.6666667  -0.3333333   1.0000000), wk =   0.2222222
        k(   15) = (   0.5000000  -0.1666667   0.8333333), wk =   0.2222222
        k(   16) = (  -0.3333333  -1.0000000   0.0000000), wk =   0.1111111

     Dense  grid:    41151 G-vectors     FFT dimensions: (  50,  50,  50)

     Smooth grid:    14361 G-vectors     FFT dimensions: (  36,  36,  36)

     Estimated max dynamical RAM per process >      25.48 MB

     Estimated total dynamical RAM >     193.81 MB

     Initial potential from superposition of free atoms

     starting charge      17.9968, renormalised to      18.0000
     Starting wfcs are   13 randomized atomic wfcs
     Checking if some PAW data can be deallocated... 

     total cpu time spent up to now is        0.9 secs

     Self-consistent Calculation

     iteration #  1     ecut=    50.00 Ry     beta= 0.70
     Davidson diagonalization with overlap
     ethr =  1.00E-02,  avg # of iterations =  1.4

     Threshold (ethr) on eigenvalues was too large:
     Diagonalizing with lowered threshold

     Davidson diagonalization with overlap
     ethr =  2.91E-04,  avg # of iterations =  2.0

     total cpu time spent up to now is        1.1 secs

     total energy              =    -453.95328926 Ry
     estimated scf accuracy    <       0.05241744 Ry

     iteration #  2     ecut=    50.00 Ry     beta= 0.70
     Davidson diagonalization with overlap
     ethr =  2.91E-04,  avg # of iterations =  2.6

     total cpu time spent up to now is        1.2 secs

     total energy              =    -453.96297356 Ry
     estimated scf accuracy    <       0.00778263 Ry

     iteration #  3     ecut=    50.00 Ry     beta= 0.70
     Davidson diagonalization with overlap
     ethr =  4.32E-05,  avg # of iterations =  2.0

     total cpu time spent up to now is        1.3 secs

     total energy              =    -453.96463613 Ry
     estimated scf accuracy    <       0.00061636 Ry

     iteration #  4     ecut=    50.00 Ry     beta= 0.70
     Davidson diagonalization with overlap
     ethr =  3.42E-06,  avg # of iterations =  2.4

     total cpu time spent up to now is        1.5 secs

     total energy              =    -453.96482038 Ry
     estimated scf accuracy    <       0.00008372 Ry

     iteration #  5     ecut=    50.00 Ry     beta= 0.70
     Davidson diagonalization with overlap
     ethr =  4.65E-07,  avg # of iterations =  2.2

     total cpu time spent up to now is        1.6 secs

     total energy              =    -453.96485928 Ry
     estimated scf accuracy    <       0.00001663 Ry

     iteration #  6     ecut=    50.00 Ry     beta= 0.70
     Davidson diagonalization with overlap
     ethr =  9.24E-08,  avg # of iterations =  2.4

     total cpu time spent up to now is        1.7 secs

     total energy              =    -453.96486240 Ry
     estimated scf accuracy    <       0.00000055 Ry

     iteration #  7     ecut=    50.00 Ry     beta= 0.70
     Davidson diagonalization with overlap
     ethr =  3.05E-09,  avg # of iterations =  4.6

     total cpu time spent up to now is        1.9 secs

     total energy              =    -453.96486279 Ry
     estimated scf accuracy    <       0.00000114 Ry

     iteration #  8     ecut=    50.00 Ry     beta= 0.70
     Davidson diagonalization with overlap
     ethr =  3.05E-09,  avg # of iterations =  2.2

     total cpu time spent up to now is        2.0 secs

     total energy              =    -453.96486291 Ry
     estimated scf accuracy    <       0.00000009 Ry

     iteration #  9     ecut=    50.00 Ry     beta= 0.70
     Davidson diagonalization with overlap
     ethr =  4.82E-10,  avg # of iterations =  3.0

     total cpu time spent up to now is        2.2 secs

     total energy              =    -453.96486295 Ry
     estimated scf accuracy    <       0.00000001 Ry

     iteration # 10     ecut=    50.00 Ry     beta= 0.70
     Davidson diagonalization with overlap
     ethr =  5.62E-11,  avg # of iterations =  1.9

     total cpu time spent up to now is        2.3 secs

     End of self-consistent calculation

          k = 0.0000 0.0000 0.0000 (  1837 PWs)   bands (ev):

    -7.1921  -7.1921  -7.1921  -7.1138  -7.1138  -5.1109   7.6255   7.6255
     7.6255

          k =-0.1667 0.1667-0.1667 (  1820 PWs)   bands (ev):

    -7.2141  -7.1862  -7.1862  -7.1138  -7.1138  -4.7914   4.9037   7.2417
     7.2417

          k =-0.3333 0.3333-0.3333 (  1853 PWs)   bands (ev):

    -7.2527  -7.1764  -7.1764  -7.1117  -7.1117  -3.9658   2.2312   6.6935
     6.6935

          k = 0.5000-0.5000 0.5000 (  1802 PWs)   bands (ev):

    -7.2700  -7.1728  -7.1728  -7.1092  -7.1092  -3.3493   0.9685   6.4781
     6.4781

          k = 0.0000 0.3333 0.0000 (  1832 PWs)   bands (ev):

    -7.2262  -7.1802  -7.1802  -7.1191  -7.1103  -4.6848   4.9089   6.6055
     6.6055

          k =-0.1667 0.5000-0.1667 (  1831 PWs)   bands (ev):

    -7.2561  -7.1716  -7.1692  -7.1217  -7.1074  -4.0155   2.8733   5.7546
     6.0472

          k = 0.6667-0.3333 0.6667 (  1807 PWs)   bands (ev):

    -7.2743  -7.1687  -7.1646  -7.1170  -7.1077  -3.2184   1.2181   4.9770
     5.9775

          k = 0.5000-0.1667 0.5000 (  1822 PWs)   bands (ev):

    -7.2678  -7.1700  -7.1685  -7.1135  -7.1119  -3.4443   1.6361   4.7781
     6.4173

          k = 0.3333 0.0000 0.3333 (  1825 PWs)   bands (ev):

    -7.2405  -7.1793  -7.1760  -7.1165  -7.1113  -4.2956   3.4952   5.5203
     7.0944

          k = 0.0000 0.6667 0.0000 (  1832 PWs)   bands (ev):

    -7.2795  -7.1556  -7.1556  -7.1320  -7.1031  -3.5555   2.2561   5.3888
     5.3888

          k = 0.8333-0.1667 0.8333 (  1807 PWs)   bands (ev):

    -7.2911  -7.1535  -7.1494  -7.1313  -7.1031  -2.8649   1.2011   4.3388
     5.2354

          k = 0.6667-0.0000 0.6667 (  1798 PWs)   bands (ev):

    -7.2835  -7.1619  -7.1547  -7.1215  -7.1096  -2.8001   1.1498   3.6414
     5.6596

          k = 0.0000-1.0000 0.0000 (  1772 PWs)   bands (ev):

    -7.3017  -7.1429  -7.1429  -7.1390  -7.0995  -2.6105   0.7903   4.9363
     4.9363

          k = 0.6667-0.3333 1.0000 (  1818 PWs)   bands (ev):

    -7.2760  -7.1651  -7.1580  -7.1238  -7.1069  -3.3039   1.8070   4.4012
     5.5645

          k = 0.5000-0.1667 0.8333 (  1816 PWs)   bands (ev):

    -7.2832  -7.1646  -7.1529  -7.1214  -7.1092  -2.7990   1.1128   3.9529
     5.1557

          k =-0.3333-1.0000 0.0000 (  1810 PWs)   bands (ev):

    -7.2922  -7.1565  -7.1467  -7.1284  -7.1055  -2.5663   0.9233   4.2695
     4.4059

     highest occupied level (ev):     7.6255

!    total energy              =    -453.96486295 Ry
     total all-electron energy =     -8410.096885 Ry
     estimated scf accuracy    <          1.9E-09 Ry

     The total energy is the sum of the following terms:
     one-electron contribution =    -120.23933947 Ry
     hartree contribution      =      45.04948473 Ry
     xc contribution           =     -50.87807659 Ry
     ewald contribution        =     -93.01921000 Ry
     one-center paw contrib.   =    -234.87772162 Ry

     convergence has been achieved in  10 iterations

     Writing all to output data dir ./out/gaas.save/ :
     XML data file, charge density, pseudopotentials, collected wavefunctions
 
     init_run     :      0.64s CPU      0.67s WALL (       1 calls)
     electrons    :      1.27s CPU      1.42s WALL (       1 calls)

     Called by init_run:
     wfcinit      :      0.02s CPU      0.03s WALL (       1 calls)
     potinit      :      0.28s CPU      0.29s WALL (       1 calls)
     hinit0       :      0.29s CPU      0.30s WALL (       1 calls)

     Called by electrons:
     c_bands      :      0.46s CPU      0.53s WALL (      11 calls)
     sum_band     :      0.20s CPU      0.22s WALL (      11 calls)
     v_of_rho     :      0.09s CPU      0.10s WALL (      11 calls)
     newd         :      0.11s CPU      0.12s WALL (      11 calls)
     PAW_pot      :      0.46s CPU      0.50s WALL (      11 calls)
     mix_rho      :      0.01s CPU      0.01s WALL (      11 calls)

     Called by c_bands:
     init_us_2    :      0.02s CPU      0.02s WALL (     184 calls)
     cegterg      :      0.43s CPU      0.50s WALL (      88 calls)

     Called by *egterg:
     cdiaghg      :      0.03s CPU      0.04s WALL (     309 calls)
     h_psi        :      0.37s CPU      0.43s WALL (     325 calls)
     s_psi        :      0.00s CPU      0.01s WALL (     325 calls)
     g_psi        :      0.00s CPU      0.00s WALL (     229 calls)

     Called by h_psi:
     h_psi:calbec :      0.02s CPU      0.02s WALL (     325 calls)
     vloc_psi     :      0.34s CPU      0.40s WALL (     325 calls)
                                        0.00s GPU  (     325 calls)
     add_vuspsi   :      0.00s CPU      0.01s WALL (     325 calls)

     General routines
     calbec       :      0.02s CPU      0.03s WALL (     413 calls)
     fft          :      0.20s CPU      0.20s WALL (     142 calls)
     ffts         :      0.22s CPU      0.22s WALL (      22 calls)
     fftw         :      0.37s CPU      0.44s WALL (    5448 calls)
     interpolate  :      0.22s CPU      0.23s WALL (      11 calls)
 
     Parallel routines
 
     PWSCF        :      2.13s CPU      2.32s WALL

 
   This run was terminated on:  20:36: 1  20Jun2026            

=------------------------------------------------------------------------------=
   JOB DONE.
=------------------------------------------------------------------------------=
