 CRYSTAL
 PRIMVEC
   -2.826573613    0.000000000    2.826573613
    0.000000000    2.826573613    2.826573613
   -2.826573613    2.826573613    0.000000000
 PRIMCOORD
            2            1
Ga        0.000000000    0.000000000    0.000000000
As        1.413286807    1.413286807    1.413286807
BEGIN_BLOCK_DATAGRID_3D
3D_PWSCF
BEGIN_DATAGRID_3D_UNKNOWN
           51           51           51
  0.000000  0.000000  0.000000
   -2.826574    0.000000    2.826574
    0.000000    2.826574    2.826574
   -2.826574    2.826574    0.000000
  0.151329E+01  0.148775E+01  0.141916E+01  0.132009E+01  0.120153E+01  0.106495E+01
  0.907043E+00  0.728599E+00  0.541771E+00  0.366333E+00  0.222108E+00  0.120656E+00
  0.655719E-01  0.484850E-01  0.418889E-01  0.367746E-01  0.334061E-01  0.305905E-01
  0.286496E-01  0.269515E-01  0.259081E-01  0.249350E-01  0.243819E-01  0.238988E-01
  0.237163E-01  0.235405E-01  0.237163E-01  0.238988E-01  0.243819E-01  0.249350E-01
  0.259081E-01  0.269515E-01  0.286496E-01  0.305905E-01  0.334061E-01  0.367746E-01
  0.418889E-01  0.484850E-01  0.655719E-01  0.120656E+00  0.222108E+00  0.366333E+00
  0.541771E+00  0.728599E+00  0.907043E+00  0.106495E+01  0.120153E+01  0.132009E+01
  0.141916E+01  0.148775E+01  0.151329E+01  0.148775E+01  0.144114E+01  0.135819E+01
  0.125080E+01  0.112507E+01  0.978619E+00  0.810049E+00  0.625690E+00  0.443206E+00
  0.282685E+00  0.160871E+00  0.836634E-01  0.514175E-01  0.426299E-01  0.363893E-01
  0.323726E-01  0.290328E-01  0.267399E-01  0.247973E-01  0.234680E-01  0.223628E-01
  0.215926E-01  0.210135E-01  0.206674E-01  0.204848E-01  0.204848E-01  0.206674E-01
  0.210135E-01  0.215926E-01  0.223628E-01  0.234680E-01  0.247973E-01  0.267399E-01
  0.290328E-01  0.323726E-01  0.363893E-01  0.426299E-01  0.514175E-01  0.836634E-01
  0.160871E+00  0.282685E+00  0.443206E+00  0.625690E+00  0.810049E+00  0.978619E+00
  0.112507E+01  0.125080E+01  0.135819E+01  0.144114E+01  0.148775E+01  0.148775E+01
  0.141916E+01  0.135819E+01  0.126786E+01  0.115585E+01  0.102231E+01  0.865885E+00
  0.689515E+00  0.507338E+00  0.338507E+00  0.201951E+00  0.107331E+00  0.581157E-01
  0.434216E-01  0.366973E-01  0.315638E-01  0.280050E-01  0.251079E-01  0.230653E-01
  0.213621E-01  0.202105E-01  0.191710E-01  0.185607E-01  0.180005E-01  0.178224E-01
  0.176689E-01  0.178224E-01  0.180005E-01  0.185607E-01  0.191710E-01  0.202105E-01
  0.213621E-01  0.230653E-01  0.251079E-01  0.280050E-01  0.315638E-01  0.366973E-01
  0.434216E-01  0.581157E-01  0.107331E+00  0.201951E+00  0.338507E+00  0.507338E+00
  0.689515E+00  0.865885E+00  0.102231E+01  0.115585E+01  0.126786E+01  0.135819E+01
  0.141916E+01  0.144090E+01  0.141916E+01  0.132009E+01  0.125080E+01  0.115585E+01
  0.103698E+01  0.894193E+00  0.729204E+00  0.553047E+00  0.383252E+00  0.238546E+00
  0.131949E+00  0.683123E-01  0.448399E-01  0.372361E-01  0.311242E-01  0.272369E-01
  0.239152E-01  0.216409E-01  0.196736E-01  0.183759E-01  0.172287E-01  0.164649E-01
  0.158344E-01  0.154914E-01  0.152998E-01  0.152998E-01  0.154914E-01  0.158344E-01
  0.164649E-01  0.172287E-01  0.183759E-01  0.196736E-01  0.216409E-01  0.239152E-01
  0.272369E-01  0.311242E-01  0.372361E-01  0.448399E-01  0.683123E-01  0.131949E+00
  0.238546E+00  0.383252E+00  0.553047E+00  0.729204E+00  0.894193E+00  0.103698E+01
  0.115585E+01  0.125080E+01  0.132009E+01  0.135757E+01  0.135757E+01  0.132009E+01
  0.120153E+01  0.112507E+01  0.102231E+01  0.894193E+00  0.742674E+00  0.576787E+00
  0.412035E+00  0.265923E+00  0.153113E+00  0.796410E-01  0.472496E-01  0.377077E-01
  0.311334E-01  0.266168E-01  0.230714E-01  0.204458E-01  0.183953E-01  0.168043E-01
  0.156281E-01  0.146495E-01  0.140418E-01  0.135131E-01  0.133043E-01  0.131539E-01
  0.133043E-01  0.135131E-01  0.140418E-01  0.146495E-01  0.156281E-01  0.168043E-01
  0.183953E-01  0.204458E-01  0.230714E-01  0.266168E-01  0.311334E-01  0.377077E-01
  0.472496E-01  0.796410E-01  0.153113E+00  0.265923E+00  0.412035E+00  0.576787E+00
  0.742674E+00  0.894193E+00  0.102231E+01  0.112507E+01  0.120153E+01  0.124978E+01
  0.126645E+01  0.124978E+01  0.120153E+01  0.106495E+01  0.978619E+00  0.865885E+00
  0.729204E+00  0.576787E+00  0.421968E+00  0.280518E+00  0.167235E+00  0.891550E-01
  0.502372E-01  0.381699E-01  0.313795E-01  0.262242E-01  0.224981E-01  0.195062E-01
  0.173665E-01  0.155488E-01  0.142929E-01  0.131578E-01  0.124522E-01  0.119010E-01
  0.115666E-01  0.113989E-01  0.113989E-01  0.115666E-01  0.119010E-01  0.124522E-01
  0.131578E-01  0.142929E-01  0.155488E-01  0.173665E-01  0.195062E-01  0.224981E-01
  0.262242E-01  0.313795E-01  0.381699E-01  0.502372E-01  0.891550E-01  0.167235E+00
  0.280518E+00  0.421968E+00  0.576787E+00  0.729204E+00  0.865885E+00  0.978619E+00
  0.106495E+01  0.112384E+01  0.115384E+01  0.115384E+01  0.112384E+01  0.106495E+01
  0.907043E+00  0.810049E+00  0.689515E+00  0.553047E+00  0.412035E+00  0.280518E+00
  0.172205E+00  0.945578E-01  0.526705E-01  0.385973E-01  0.316156E-01  0.259782E-01
  0.221075E-01  0.188482E-01  0.165542E-01  0.145748E-01  0.132096E-01  0.120613E-01
  0.112194E-01  0.105806E-01  0.101569E-01  0.989762E-02  0.981166E-02  0.989762E-02
  0.101569E-01  0.105806E-01  0.112194E-01  0.120613E-01  0.132096E-01  0.145748E-01
  0.165542E-01  0.188482E-01  0.221075E-01  0.259782E-01  0.316156E-01  0.385973E-01
  0.526705E-01  0.945578E-01  0.172205E+00  0.280518E+00  0.412035E+00  0.553047E+00
  0.689515E+00  0.810049E+00  0.907043E+00  0.977461E+00  0.102016E+01  0.103445E+01
  0.102016E+01  0.977461E+00  0.907043E+00  0.728599E+00  0.625690E+00  0.507338E+00
  0.383252E+00  0.265923E+00  0.167235E+00  0.945578E-01  0.536024E-01  0.388236E-01
  0.318136E-01  0.258841E-01  0.218789E-01  0.184165E-01  0.159745E-01  0.138665E-01
  0.123427E-01  0.110935E-01  0.101978E-01  0.948114E-02  0.897506E-02  0.866559E-02
  0.851140E-02  0.851140E-02  0.866559E-02  0.897506E-02  0.948114E-02  0.101978E-01
  0.110935E-01  0.123427E-01  0.138665E-01  0.159745E-01  0.184165E-01  0.218789E-01
  0.258841E-01  0.318136E-01  0.388236E-01  0.536024E-01  0.945578E-01  0.167235E+00
  0.265923E+00  0.383252E+00  0.507338E+00  0.625690E+00  0.728599E+00  0.809303E+00
  0.864207E+00  0.891897E+00  0.891897E+00  0.864207E+00  0.809303E+00  0.728599E+00
  0.541771E+00  0.443206E+00  0.338507E+00  0.238546E+00  0.153113E+00  0.891550E-01
  0.526705E-01  0.388236E-01  0.318993E-01  0.258855E-01  0.217290E-01  0.181359E-01
  0.155387E-01  0.133942E-01  0.117179E-01  0.104408E-01  0.937823E-02  0.865359E-02
  0.803576E-02  0.770843E-02  0.742755E-02  0.742765E-02  0.742755E-02  0.770843E-02
  0.803576E-02  0.865359E-02  0.937823E-02  0.104408E-01  0.117179E-01  0.133942E-01
  0.155387E-01  0.181359E-01  0.217290E-01  0.258855E-01  0.318993E-01  0.388236E-01
  0.526705E-01  0.891550E-01  0.153113E+00  0.238546E+00  0.338507E+00  0.443206E+00
  0.541771E+00  0.625655E+00  0.688943E+00  0.728057E+00  0.741289E+00  0.728057E+00
  0.688943E+00  0.625655E+00  0.541771E+00  0.366333E+00  0.282685E+00  0.201951E+00
  0.131949E+00  0.796410E-01  0.502372E-01  0.385973E-01  0.318136E-01  0.258855E-01
  0.216635E-01  0.180313E-01  0.152700E-01  0.130769E-01  0.112551E-01  0.993503E-02
  0.880509E-02  0.801066E-02  0.732013E-02  0.693636E-02  0.659780E-02  0.646188E-02
  0.646188E-02  0.659780E-02  0.693636E-02  0.732013E-02  0.801066E-02  0.880509E-02
  0.993503E-02  0.112551E-01  0.130769E-01  0.152700E-01  0.180313E-01  0.216635E-01
  0.258855E-01  0.318136E-01  0.385973E-01  0.502372E-01  0.796410E-01  0.131949E+00
  0.201951E+00  0.282685E+00  0.366333E+00  0.444088E+00  0.508363E+00  0.553851E+00
  0.577371E+00  0.577371E+00  0.553851E+00  0.508363E+00  0.444088E+00  0.366333E+00
  0.222108E+00  0.160871E+00  0.107331E+00  0.683123E-01  0.472496E-01  0.381699E-01
  0.316156E-01  0.258841E-01  0.217290E-01  0.180313E-01  0.152094E-01  0.128820E-01
  0.110227E-01  0.959529E-02  0.838754E-02  0.750409E-02  0.679818E-02  0.630225E-02
  0.598544E-02  0.576831E-02  0.569830E-02  0.576831E-02  0.598544E-02  0.630225E-02
  0.679818E-02  0.750409E-02  0.838754E-02  0.959529E-02  0.110227E-01  0.128820E-01
  0.152094E-01  0.180313E-01  0.217290E-01  0.258841E-01  0.316156E-01  0.381699E-01
  0.472496E-01  0.683123E-01  0.107331E+00  0.160871E+00  0.222108E+00  0.284558E+00
  0.341402E+00  0.386551E+00  0.415416E+00  0.425348E+00  0.415416E+00  0.386551E+00
  0.341402E+00  0.284558E+00  0.222108E+00  0.120656E+00  0.836634E-01  0.581157E-01
  0.448399E-01  0.377077E-01  0.313795E-01  0.259782E-01  0.218789E-01  0.181359E-01
  0.152700E-01  0.128820E-01  0.109341E-01  0.945610E-02  0.815638E-02  0.722030E-02
  0.642981E-02  0.590203E-02  0.544146E-02  0.523566E-02  0.508345E-02  0.508345E-02
  0.523566E-02  0.544146E-02  0.590203E-02  0.642981E-02  0.722030E-02  0.815638E-02
  0.945610E-02  0.109341E-01  0.128820E-01  0.152700E-01  0.181359E-01  0.218789E-01
  0.259782E-01  0.313795E-01  0.377077E-01  0.448399E-01  0.581157E-01  0.836634E-01
  0.120656E+00  0.163681E+00  0.206727E+00  0.244534E+00  0.272549E+00  0.287401E+00
  0.287401E+00  0.272549E+00  0.244534E+00  0.206727E+00  0.163681E+00  0.120656E+00
  0.655719E-01  0.514175E-01  0.434216E-01  0.372361E-01  0.311334E-01  0.262242E-01
  0.221075E-01  0.184165E-01  0.155387E-01  0.130769E-01  0.110227E-01  0.945610E-02
  0.803780E-02  0.706790E-02  0.620415E-02  0.559998E-02  0.512833E-02  0.477944E-02
  0.466593E-02  0.453751E-02  0.466593E-02  0.477944E-02  0.512833E-02  0.559998E-02
  0.620415E-02  0.706790E-02  0.803780E-02  0.945610E-02  0.110227E-01  0.130769E-01
  0.155387E-01  0.184165E-01  0.221075E-01  0.262242E-01  0.311334E-01  0.372361E-01
  0.434216E-01  0.514175E-01  0.655719E-01  0.872700E-01  0.113798E+00  0.140488E+00
  0.163002E+00  0.177865E+00  0.183068E+00  0.177865E+00  0.163002E+00  0.140488E+00
  0.113798E+00  0.872700E-01  0.655719E-01  0.484850E-01  0.426299E-01  0.366973E-01
  0.311242E-01  0.266168E-01  0.224981E-01  0.188482E-01  0.159745E-01  0.133942E-01
  0.112551E-01  0.959529E-02  0.815638E-02  0.706790E-02  0.616392E-02  0.546157E-02
  0.497012E-02  0.456529E-02  0.434592E-02  0.422551E-02  0.422551E-02  0.434592E-02
  0.456529E-02  0.497012E-02  0.546157E-02  0.616392E-02  0.706790E-02  0.815638E-02
  0.959529E-02  0.112551E-01  0.133942E-01  0.159745E-01  0.188482E-01  0.224981E-01
  0.266168E-01  0.311242E-01  0.366973E-01  0.426299E-01  0.484850E-01  0.556378E-01
  0.659443E-01  0.790299E-01  0.924762E-01  0.103357E+00  0.109424E+00  0.109424E+00
  0.103357E+00  0.924762E-01  0.790299E-01  0.659443E-01  0.556378E-01  0.484850E-01
  0.418889E-01  0.363893E-01  0.315638E-01  0.272369E-01  0.230714E-01  0.195062E-01
  0.165542E-01  0.138665E-01  0.117179E-01  0.993503E-02  0.838754E-02  0.722030E-02
  0.620415E-02  0.546157E-02  0.489250E-02  0.444188E-02  0.415341E-02  0.395715E-02
  0.395589E-02  0.395715E-02  0.415341E-02  0.444188E-02  0.489250E-02  0.546157E-02
  0.620415E-02  0.722030E-02  0.838754E-02  0.993503E-02  0.117179E-01  0.138665E-01
  0.165542E-01  0.195062E-01  0.230714E-01  0.272369E-01  0.315638E-01  0.363893E-01
  0.418889E-01  0.473235E-01  0.522950E-01  0.572662E-01  0.625003E-01  0.675212E-01
  0.711732E-01  0.725092E-01  0.711732E-01  0.675212E-01  0.625003E-01  0.572662E-01
  0.522950E-01  0.473235E-01  0.418889E-01  0.367746E-01  0.323726E-01  0.280050E-01
  0.239152E-01  0.204458E-01  0.173665E-01  0.145748E-01  0.123427E-01  0.104408E-01
  0.880509E-02  0.750409E-02  0.642981E-02  0.559998E-02  0.497012E-02  0.444188E-02
  0.412632E-02  0.388287E-02  0.380301E-02  0.380301E-02  0.388287E-02  0.412632E-02
  0.444188E-02  0.497012E-02  0.559998E-02  0.642981E-02  0.750409E-02  0.880509E-02
  0.104408E-01  0.123427E-01  0.145748E-01  0.173665E-01  0.204458E-01  0.239152E-01
  0.280050E-01  0.323726E-01  0.367746E-01  0.414685E-01  0.464230E-01  0.510490E-01
  0.549336E-01  0.580334E-01  0.602551E-01  0.613867E-01  0.613867E-01  0.602551E-01
  0.580334E-01  0.549336E-01  0.510490E-01  0.464230E-01  0.414685E-01  0.367746E-01
  0.334061E-01  0.290328E-01  0.251079E-01  0.216409E-01  0.183953E-01  0.155488E-01
  0.132096E-01  0.110935E-01  0.937823E-02  0.801066E-02  0.679818E-02  0.590203E-02
  0.512833E-02  0.456529E-02  0.415341E-02  0.388287E-02  0.371446E-02  0.360218E-02
  0.371446E-02  0.388287E-02  0.415341E-02  0.456529E-02  0.512833E-02  0.590203E-02
  0.679818E-02  0.801066E-02  0.937823E-02  0.110935E-01  0.132096E-01  0.155488E-01
  0.183953E-01  0.216409E-01  0.251079E-01  0.290328E-01  0.334061E-01  0.377670E-01
  0.419951E-01  0.461067E-01  0.500524E-01  0.534960E-01  0.560876E-01  0.577288E-01
  0.582999E-01  0.577288E-01  0.560876E-01  0.534960E-01  0.500524E-01  0.461067E-01
  0.419951E-01  0.377670E-01  0.334061E-01  0.305905E-01  0.267399E-01  0.230653E-01
  0.196736E-01  0.168043E-01  0.142929E-01  0.120613E-01  0.101978E-01  0.865359E-02
  0.732013E-02  0.630225E-02  0.544146E-02  0.477944E-02  0.434592E-02  0.395715E-02
  0.380301E-02  0.360218E-02  0.360218E-02  0.380301E-02  0.395715E-02  0.434592E-02
  0.477944E-02  0.544146E-02  0.630225E-02  0.732013E-02  0.865359E-02  0.101978E-01
  0.120613E-01  0.142929E-01  0.168043E-01  0.196736E-01  0.230653E-01  0.267399E-01
  0.305905E-01  0.346919E-01  0.390176E-01  0.431933E-01  0.469716E-01  0.503008E-01
  0.529667E-01  0.548735E-01  0.558926E-01  0.558926E-01  0.548735E-01  0.529667E-01
  0.503008E-01  0.469716E-01  0.431933E-01  0.390176E-01  0.346919E-01  0.305905E-01
  0.286496E-01  0.247973E-01  0.213621E-01  0.183759E-01  0.156281E-01  0.131578E-01
  0.112194E-01  0.948114E-02  0.803576E-02  0.693636E-02  0.598544E-02  0.523566E-02
  0.466593E-02  0.422551E-02  0.395589E-02  0.380301E-02  0.371446E-02  0.380301E-02
  0.395589E-02  0.422551E-02  0.466593E-02  0.523566E-02  0.598544E-02  0.693636E-02
  0.803576E-02  0.948114E-02  0.112194E-01  0.131578E-01  0.156281E-01  0.183759E-01
  0.213621E-01  0.247973E-01  0.286496E-01  0.326230E-01  0.366135E-01  0.406973E-01
  0.446573E-01  0.482759E-01  0.513221E-01  0.536470E-01  0.550713E-01  0.555357E-01
  0.550713E-01  0.536470E-01  0.513221E-01  0.482759E-01  0.446573E-01  0.406973E-01
  0.366135E-01  0.326230E-01  0.286496E-01  0.269515E-01  0.234680E-01  0.202105E-01
  0.172287E-01  0.146495E-01  0.124522E-01  0.105806E-01  0.897506E-02  0.770843E-02
  0.659780E-02  0.576831E-02  0.508345E-02  0.453751E-02  0.422551E-02  0.395715E-02
  0.388287E-02  0.388287E-02  0.395715E-02  0.422551E-02  0.453751E-02  0.508345E-02
  0.576831E-02  0.659780E-02  0.770843E-02  0.897506E-02  0.105806E-01  0.124522E-01
  0.146495E-01  0.172287E-01  0.202105E-01  0.234680E-01  0.269515E-01  0.308702E-01
  0.349955E-01  0.391357E-01  0.431010E-01  0.467766E-01  0.500438E-01  0.526986E-01
  0.545497E-01  0.555318E-01  0.555318E-01  0.545497E-01  0.526986E-01  0.500438E-01
  0.467766E-01  0.431010E-01  0.391357E-01  0.349955E-01  0.308702E-01  0.269515E-01
  0.259081E-01  0.223628E-01  0.191710E-01  0.164649E-01  0.140418E-01  0.119010E-01
  0.101569E-01  0.866559E-02  0.742755E-02  0.646188E-02  0.569830E-02  0.508345E-02
  0.466593E-02  0.434592E-02  0.415341E-02  0.412632E-02  0.415341E-02  0.434592E-02
  0.466593E-02  0.508345E-02  0.569830E-02  0.646188E-02  0.742755E-02  0.866559E-02
  0.101569E-01  0.119010E-01  0.140418E-01  0.164649E-01  0.191710E-01  0.223628E-01
  0.259081E-01  0.297052E-01  0.336614E-01  0.377885E-01  0.419828E-01  0.459484E-01
  0.495088E-01  0.525248E-01  0.547680E-01  0.561542E-01  0.566519E-01  0.561542E-01
  0.547680E-01  0.525248E-01  0.495088E-01  0.459484E-01  0.419828E-01  0.377885E-01
  0.336614E-01  0.297052E-01  0.259081E-01  0.249350E-01  0.215926E-01  0.185607E-01
  0.158344E-01  0.135131E-01  0.115666E-01  0.989762E-02  0.851140E-02  0.742765E-02
  0.646188E-02  0.576831E-02  0.523566E-02  0.477944E-02  0.456529E-02  0.444188E-02
  0.444188E-02  0.456529E-02  0.477944E-02  0.523566E-02  0.576831E-02  0.646188E-02
  0.742765E-02  0.851140E-02  0.989762E-02  0.115666E-01  0.135131E-01  0.158344E-01
  0.185607E-01  0.215926E-01  0.249350E-01  0.287376E-01  0.328234E-01  0.370239E-01
  0.412007E-01  0.452849E-01  0.490961E-01  0.524609E-01  0.551960E-01  0.570953E-01
  0.580320E-01  0.580320E-01  0.570953E-01  0.551960E-01  0.524609E-01  0.490961E-01
  0.452849E-01  0.412007E-01  0.370239E-01  0.328234E-01  0.287376E-01  0.249350E-01
  0.243819E-01  0.210135E-01  0.180005E-01  0.154914E-01  0.133043E-01  0.113989E-01
  0.981166E-02  0.851140E-02  0.742755E-02  0.659780E-02  0.598544E-02  0.544146E-02
  0.512833E-02  0.497012E-02  0.489250E-02  0.497012E-02  0.512833E-02  0.544146E-02
  0.598544E-02  0.659780E-02  0.742755E-02  0.851140E-02  0.981166E-02  0.113989E-01
  0.133043E-01  0.154914E-01  0.180005E-01  0.210135E-01  0.243819E-01  0.280781E-01
  0.320402E-01  0.363221E-01  0.407131E-01  0.450249E-01  0.491010E-01  0.527490E-01
  0.558317E-01  0.581305E-01  0.596012E-01  0.600881E-01  0.596012E-01  0.581305E-01
  0.558317E-01  0.527490E-01  0.491010E-01  0.450249E-01  0.407131E-01  0.363221E-01
  0.320402E-01  0.280781E-01  0.243819E-01  0.238988E-01  0.206674E-01  0.178224E-01
  0.152998E-01  0.131539E-01  0.113989E-01  0.989762E-02  0.866559E-02  0.770843E-02
  0.693636E-02  0.630225E-02  0.590203E-02  0.559998E-02  0.546157E-02  0.546157E-02
  0.559998E-02  0.590203E-02  0.630225E-02  0.693636E-02  0.770843E-02  0.866559E-02
  0.989762E-02  0.113989E-01  0.131539E-01  0.152998E-01  0.178224E-01  0.206674E-01
  0.238988E-01  0.275820E-01  0.316275E-01  0.359138E-01  0.402984E-01  0.447237E-01
  0.491177E-01  0.530628E-01  0.565810E-01  0.593562E-01  0.612790E-01  0.622948E-01
  0.622948E-01  0.612790E-01  0.593562E-01  0.565810E-01  0.530628E-01  0.491177E-01
  0.447237E-01  0.402984E-01  0.359138E-01  0.316275E-01  0.275820E-01  0.238988E-01
  0.237163E-01  0.204848E-01  0.176689E-01  0.152998E-01  0.133043E-01  0.115666E-01
  0.101569E-01  0.897506E-02  0.803576E-02  0.732013E-02  0.679818E-02  0.642981E-02
  0.620415E-02  0.616392E-02  0.620415E-02  0.642981E-02  0.679818E-02  0.732013E-02
  0.803576E-02  0.897506E-02  0.101569E-01  0.115666E-01  0.133043E-01  0.152998E-01
  0.176689E-01  0.204848E-01  0.237163E-01  0.272910E-01  0.312063E-01  0.355473E-01
  0.401272E-01  0.446818E-01  0.492276E-01  0.534720E-01  0.572454E-01  0.604346E-01
  0.628110E-01  0.642970E-01  0.647597E-01  0.642970E-01  0.628110E-01  0.604346E-01
  0.572454E-01  0.534720E-01  0.492276E-01  0.446818E-01  0.401272E-01  0.355473E-01
  0.312063E-01  0.272910E-01  0.237163E-01  0.235405E-01  0.204848E-01  0.178224E-01
  0.154914E-01  0.135131E-01  0.119010E-01  0.105806E-01  0.948114E-02  0.865359E-02
  0.801066E-02  0.750409E-02  0.722030E-02  0.706790E-02  0.706790E-02  0.722030E-02
  0.750409E-02  0.801066E-02  0.865359E-02  0.948114E-02  0.105806E-01  0.119010E-01
  0.135131E-01  0.154914E-01  0.178224E-01  0.204848E-01  0.235405E-01  0.271347E-01
  0.311120E-01  0.353801E-01  0.399106E-01  0.446262E-01  0.493257E-01  0.537955E-01
  0.579304E-01  0.614738E-01  0.642360E-01  0.661879E-01  0.671708E-01  0.671708E-01
  0.661879E-01  0.642360E-01  0.614738E-01  0.579304E-01  0.537955E-01  0.493257E-01
  0.446262E-01  0.399106E-01  0.353801E-01  0.311120E-01  0.271347E-01  0.235405E-01
  0.237163E-01  0.206674E-01  0.180005E-01  0.158344E-01  0.140418E-01  0.124522E-01
  0.112194E-01  0.101978E-01  0.937823E-02  0.880509E-02  0.838754E-02  0.815638E-02
  0.803780E-02  0.815638E-02  0.838754E-02  0.880509E-02  0.937823E-02  0.101978E-01
  0.112194E-01  0.124522E-01  0.140418E-01  0.158344E-01  0.180005E-01  0.206674E-01
  0.237163E-01  0.271347E-01  0.309859E-01  0.352762E-01  0.398882E-01  0.446205E-01
  0.494267E-01  0.540690E-01  0.584000E-01  0.622255E-01  0.653675E-01  0.676811E-01
  0.690869E-01  0.695952E-01  0.690869E-01  0.676811E-01  0.653675E-01  0.622255E-01
  0.584000E-01  0.540690E-01  0.494267E-01  0.446205E-01  0.398882E-01  0.352762E-01
  0.309859E-01  0.271347E-01  0.237163E-01  0.238988E-01  0.210135E-01  0.185607E-01
  0.164649E-01  0.146495E-01  0.131578E-01  0.120613E-01  0.110935E-01  0.104408E-01
  0.993503E-02  0.959529E-02  0.945610E-02  0.945610E-02  0.959529E-02  0.993503E-02
  0.104408E-01  0.110935E-01  0.120613E-01  0.131578E-01  0.146495E-01  0.164649E-01
  0.185607E-01  0.210135E-01  0.238988E-01  0.272910E-01  0.311120E-01  0.352762E-01
  0.397995E-01  0.446177E-01  0.494818E-01  0.542771E-01  0.588381E-01  0.628896E-01
  0.662367E-01  0.688776E-01  0.706206E-01  0.715085E-01  0.715085E-01  0.706206E-01
  0.688776E-01  0.662367E-01  0.628896E-01  0.588381E-01  0.542771E-01  0.494818E-01
  0.446177E-01  0.397995E-01  0.352762E-01  0.311120E-01  0.272910E-01  0.238988E-01
  0.243819E-01  0.215926E-01  0.191710E-01  0.172287E-01  0.156281E-01  0.142929E-01
  0.132096E-01  0.123427E-01  0.117179E-01  0.112551E-01  0.110227E-01  0.109341E-01
  0.110227E-01  0.112551E-01  0.117179E-01  0.123427E-01  0.132096E-01  0.142929E-01
  0.156281E-01  0.172287E-01  0.191710E-01  0.215926E-01  0.243819E-01  0.275820E-01
  0.312063E-01  0.353801E-01  0.398882E-01  0.446177E-01  0.495021E-01  0.543808E-01
  0.590099E-01  0.632272E-01  0.668438E-01  0.696185E-01  0.716695E-01  0.729204E-01
  0.733094E-01  0.729204E-01  0.716695E-01  0.696185E-01  0.668438E-01  0.632272E-01
  0.590099E-01  0.543808E-01  0.495021E-01  0.446177E-01  0.398882E-01  0.353801E-01
  0.312063E-01  0.275820E-01  0.243819E-01  0.249350E-01  0.223628E-01  0.202105E-01
  0.183759E-01  0.168043E-01  0.155488E-01  0.145748E-01  0.138665E-01  0.133942E-01
  0.130769E-01  0.128820E-01  0.128820E-01  0.130769E-01  0.133942E-01  0.138665E-01
  0.145748E-01  0.155488E-01  0.168043E-01  0.183759E-01  0.202105E-01  0.223628E-01
  0.249350E-01  0.280781E-01  0.316275E-01  0.355473E-01  0.399106E-01  0.446205E-01
  0.494818E-01  0.543808E-01  0.591595E-01  0.634229E-01  0.671572E-01  0.701567E-01
  0.722956E-01  0.737655E-01  0.744624E-01  0.744624E-01  0.737655E-01  0.722956E-01
  0.701567E-01  0.671572E-01  0.634229E-01  0.591595E-01  0.543808E-01  0.494818E-01
  0.446205E-01  0.399106E-01  0.355473E-01  0.316275E-01  0.280781E-01  0.249350E-01
  0.259081E-01  0.234680E-01  0.213621E-01  0.196736E-01  0.183953E-01  0.173665E-01
  0.165542E-01  0.159745E-01  0.155387E-01  0.152700E-01  0.152094E-01  0.152700E-01
  0.155387E-01  0.159745E-01  0.165542E-01  0.173665E-01  0.183953E-01  0.196736E-01
  0.213621E-01  0.234680E-01  0.259081E-01  0.287376E-01  0.320402E-01  0.359138E-01
  0.401272E-01  0.446262E-01  0.494267E-01  0.542771E-01  0.590099E-01  0.634229E-01
  0.672582E-01  0.703529E-01  0.727085E-01  0.742552E-01  0.751156E-01  0.754225E-01
  0.751156E-01  0.742552E-01  0.727085E-01  0.703529E-01  0.672582E-01  0.634229E-01
  0.590099E-01  0.542771E-01  0.494267E-01  0.446262E-01  0.401272E-01  0.359138E-01
  0.320402E-01  0.287376E-01  0.259081E-01  0.269515E-01  0.247973E-01  0.230653E-01
  0.216409E-01  0.204458E-01  0.195062E-01  0.188482E-01  0.184165E-01  0.181359E-01
  0.180313E-01  0.180313E-01  0.181359E-01  0.184165E-01  0.188482E-01  0.195062E-01
  0.204458E-01  0.216409E-01  0.230653E-01  0.247973E-01  0.269515E-01  0.297052E-01
  0.328234E-01  0.363221E-01  0.402984E-01  0.446818E-01  0.493257E-01  0.540690E-01
  0.588381E-01  0.632272E-01  0.671572E-01  0.703529E-01  0.727441E-01  0.744439E-01
  0.753741E-01  0.758424E-01  0.758424E-01  0.753741E-01  0.744439E-01  0.727441E-01
  0.703529E-01  0.671572E-01  0.632272E-01  0.588381E-01  0.540690E-01  0.493257E-01
  0.446818E-01  0.402984E-01  0.363221E-01  0.328234E-01  0.297052E-01  0.269515E-01
  0.286496E-01  0.267399E-01  0.251079E-01  0.239152E-01  0.230714E-01  0.224981E-01
  0.221075E-01  0.218789E-01  0.217290E-01  0.216635E-01  0.217290E-01  0.218789E-01
  0.221075E-01  0.224981E-01  0.230714E-01  0.239152E-01  0.251079E-01  0.267399E-01
  0.286496E-01  0.308702E-01  0.336614E-01  0.370239E-01  0.407131E-01  0.447237E-01
  0.492276E-01  0.537955E-01  0.584000E-01  0.628896E-01  0.668438E-01  0.701567E-01
  0.727085E-01  0.744439E-01  0.755010E-01  0.760189E-01  0.761309E-01  0.760189E-01
  0.755010E-01  0.744439E-01  0.727085E-01  0.701567E-01  0.668438E-01  0.628896E-01
  0.584000E-01  0.537955E-01  0.492276E-01  0.447237E-01  0.407131E-01  0.370239E-01
  0.336614E-01  0.308702E-01  0.286496E-01  0.305905E-01  0.290328E-01  0.280050E-01
  0.272369E-01  0.266168E-01  0.262242E-01  0.259782E-01  0.258841E-01  0.258855E-01
  0.258855E-01  0.258841E-01  0.259782E-01  0.262242E-01  0.266168E-01  0.272369E-01
  0.280050E-01  0.290328E-01  0.305905E-01  0.326230E-01  0.349955E-01  0.377885E-01
  0.412007E-01  0.450249E-01  0.491177E-01  0.534720E-01  0.579304E-01  0.622255E-01
  0.662367E-01  0.696185E-01  0.722956E-01  0.742552E-01  0.753741E-01  0.760189E-01
  0.761405E-01  0.761405E-01  0.760189E-01  0.753741E-01  0.742552E-01  0.722956E-01
  0.696185E-01  0.662367E-01  0.622255E-01  0.579304E-01  0.534720E-01  0.491177E-01
  0.450249E-01  0.412007E-01  0.377885E-01  0.349955E-01  0.326230E-01  0.305905E-01
  0.334061E-01  0.323726E-01  0.315638E-01  0.311242E-01  0.311334E-01  0.313795E-01
  0.316156E-01  0.318136E-01  0.318993E-01  0.318136E-01  0.316156E-01  0.313795E-01
  0.311334E-01  0.311242E-01  0.315638E-01  0.323726E-01  0.334061E-01  0.346919E-01
  0.366135E-01  0.391357E-01  0.419828E-01  0.452849E-01  0.491010E-01  0.530628E-01
  0.572454E-01  0.614738E-01  0.653675E-01  0.688776E-01  0.716695E-01  0.737655E-01
  0.751156E-01  0.758424E-01  0.761309E-01  0.761405E-01  0.761309E-01  0.758424E-01
  0.751156E-01  0.737655E-01  0.716695E-01  0.688776E-01  0.653675E-01  0.614738E-01
  0.572454E-01  0.530628E-01  0.491010E-01  0.452849E-01  0.419828E-01  0.391357E-01
  0.366135E-01  0.346919E-01  0.334061E-01  0.367746E-01  0.363893E-01  0.366973E-01
  0.372361E-01  0.377077E-01  0.381699E-01  0.385973E-01  0.388236E-01  0.388236E-01
  0.385973E-01  0.381699E-01  0.377077E-01  0.372361E-01  0.366973E-01  0.363893E-01
  0.367746E-01  0.377670E-01  0.390176E-01  0.406973E-01  0.431010E-01  0.459484E-01
  0.490961E-01  0.527490E-01  0.565810E-01  0.604346E-01  0.642360E-01  0.676811E-01
  0.706206E-01  0.729204E-01  0.744624E-01  0.754225E-01  0.758424E-01  0.760189E-01
  0.760189E-01  0.758424E-01  0.754225E-01  0.744624E-01  0.729204E-01  0.706206E-01
  0.676811E-01  0.642360E-01  0.604346E-01  0.565810E-01  0.527490E-01  0.490961E-01
  0.459484E-01  0.431010E-01  0.406973E-01  0.390176E-01  0.377670E-01  0.367746E-01
  0.418889E-01  0.426299E-01  0.434216E-01  0.448399E-01  0.472496E-01  0.502372E-01
  0.526705E-01  0.536024E-01  0.526705E-01  0.502372E-01  0.472496E-01  0.448399E-01
  0.434216E-01  0.426299E-01  0.418889E-01  0.414685E-01  0.419951E-01  0.431933E-01
  0.446573E-01  0.467766E-01  0.495088E-01  0.524609E-01  0.558317E-01  0.593562E-01
  0.628110E-01  0.661879E-01  0.690869E-01  0.715085E-01  0.733094E-01  0.744624E-01
  0.751156E-01  0.753741E-01  0.755010E-01  0.753741E-01  0.751156E-01  0.744624E-01
  0.733094E-01  0.715085E-01  0.690869E-01  0.661879E-01  0.628110E-01  0.593562E-01
  0.558317E-01  0.524609E-01  0.495088E-01  0.467766E-01  0.446573E-01  0.431933E-01
  0.419951E-01  0.414685E-01  0.418889E-01  0.484850E-01  0.514175E-01  0.581157E-01
  0.683123E-01  0.796410E-01  0.891550E-01  0.945578E-01  0.945578E-01  0.891550E-01
  0.796410E-01  0.683123E-01  0.581157E-01  0.514175E-01  0.484850E-01  0.473235E-01
  0.464230E-01  0.461067E-01  0.469716E-01  0.482759E-01  0.500438E-01  0.525248E-01
  0.551960E-01  0.581305E-01  0.612790E-01  0.642970E-01  0.671708E-01  0.695952E-01
  0.715085E-01  0.729204E-01  0.737655E-01  0.742552E-01  0.744439E-01  0.744439E-01
  0.742552E-01  0.737655E-01  0.729204E-01  0.715085E-01  0.695952E-01  0.671708E-01
  0.642970E-01  0.612790E-01  0.581305E-01  0.551960E-01  0.525248E-01  0.500438E-01
  0.482759E-01  0.469716E-01  0.461067E-01  0.464230E-01  0.473235E-01  0.484850E-01
  0.655719E-01  0.836634E-01  0.107331E+00  0.131949E+00  0.153113E+00  0.167235E+00
  0.172205E+00  0.167235E+00  0.153113E+00  0.131949E+00  0.107331E+00  0.836634E-01
  0.655719E-01  0.556378E-01  0.522950E-01  0.510490E-01  0.500524E-01  0.503008E-01
  0.513221E-01  0.526986E-01  0.547680E-01  0.570953E-01  0.596012E-01  0.622948E-01
  0.647597E-01  0.671708E-01  0.690869E-01  0.706206E-01  0.716695E-01  0.722956E-01
  0.727085E-01  0.727441E-01  0.727085E-01  0.722956E-01  0.716695E-01  0.706206E-01
  0.690869E-01  0.671708E-01  0.647597E-01  0.622948E-01  0.596012E-01  0.570953E-01
  0.547680E-01  0.526986E-01  0.513221E-01  0.503008E-01  0.500524E-01  0.510490E-01
  0.522950E-01  0.556378E-01  0.655719E-01  0.120656E+00  0.160871E+00  0.201951E+00
  0.238546E+00  0.265923E+00  0.280518E+00  0.280518E+00  0.265923E+00  0.238546E+00
  0.201951E+00  0.160871E+00  0.120656E+00  0.872700E-01  0.659443E-01  0.572662E-01
  0.549336E-01  0.534960E-01  0.529667E-01  0.536470E-01  0.545497E-01  0.561542E-01
  0.580320E-01  0.600881E-01  0.622948E-01  0.642970E-01  0.661879E-01  0.676811E-01
  0.688776E-01  0.696185E-01  0.701567E-01  0.703529E-01  0.703529E-01  0.701567E-01
  0.696185E-01  0.688776E-01  0.676811E-01  0.661879E-01  0.642970E-01  0.622948E-01
  0.600881E-01  0.580320E-01  0.561542E-01  0.545497E-01  0.536470E-01  0.529667E-01
  0.534960E-01  0.549336E-01  0.572662E-01  0.659443E-01  0.872700E-01  0.120656E+00
  0.222108E+00  0.282685E+00  0.338507E+00  0.383252E+00  0.412035E+00  0.421968E+00
  0.412035E+00  0.383252E+00  0.338507E+00  0.282685E+00  0.222108E+00  0.163681E+00
  0.113798E+00  0.790299E-01  0.625003E-01  0.580334E-01  0.560876E-01  0.548735E-01
  0.550713E-01  0.555318E-01  0.566519E-01  0.580320E-01  0.596012E-01  0.612790E-01
  0.628110E-01  0.642360E-01  0.653675E-01  0.662367E-01  0.668438E-01  0.671572E-01
  0.672582E-01  0.671572E-01  0.668438E-01  0.662367E-01  0.653675E-01  0.642360E-01