
     Program MATDYN v.7.5 starts on 20Jun2026 at 19:53:14 

     This program is part of the open-source Quantum ESPRESSO suite
     for quantum simulation of materials; please cite
         "P. Giannozzi et al., J. Phys.:Condens. Matter 21 395502 (2009);
         "P. Giannozzi et al., J. Phys.:Condens. Matter 29 465901 (2017);
         "P. Giannozzi et al., J. Chem. Phys. 152 154105 (2020);
          URL http://www.quantum-espresso.org", 
     in publications or presentations arising from this work. More details at
     http://www.quantum-espresso.org/quote

     Parallel version (MPI), running on     1 processors

     MPI processes distributed on     1 nodes
     79897 MiB available memory on the printing compute node when the environment starts
 
 mass for atomic type   1 not given; uses mass from file gaas.fc                                                                                                                                                                                                                                                         
 mass for atomic type   2 not given; uses mass from file gaas.fc                                                                                                                                                                                                                                                         
 
     MATDYN       :      0.24s CPU      0.42s WALL

 
   This run was terminated on:  19:53:14  20Jun2026            

=------------------------------------------------------------------------------=
   JOB DONE.
=------------------------------------------------------------------------------=
