
     Program PHONON v.7.5 starts on 20Jun2026 at 18:18:15 

     This program is part of the open-source Quantum ESPRESSO suite
     for quantum simulation of materials; please cite
         "P. Giannozzi et al., J. Phys.:Condens. Matter 21 395502 (2009);
         "P. Giannozzi et al., J. Phys.:Condens. Matter 29 465901 (2017);
         "P. Giannozzi et al., J. Chem. Phys. 152 154105 (2020);
          URL http://www.quantum-espresso.org", 
     in publications or presentations arising from this work. More details at
     http://www.quantum-espresso.org/quote

     Parallel version (MPI), running on    68 processors

     MPI processes distributed on     1 nodes
     75687 MiB available memory on the printing compute node when the environment starts
 
     Waiting for input...
     Reading input from standard input

     Reading xml data from directory:

     ./out/gaas.save/
 
     K-points division:     npool     =       4
     R & G space division:  proc/nbgrp/npool/nimage =      17
     Subspace diagonalization in iterative solution of the eigenvalue problem:
     a serial algorithm will be used

     file Ga.pbe-dn-kjpaw_psl.0.2.upf: wavefunction(s)  4S 3D renormalized

     IMPORTANT: XC functional enforced from input :
     Exchange-correlation= PBE
                           (   1   4   3   4   0   0   0)
     Any further DFT definition will be discarded
     Please, verify this is what you really want

 
     Parallelization info
     --------------------
     sticks:   dense  smooth     PW     G-vecs:    dense   smooth      PW
     Min         129      64     18                 4004     1413     224
     Max         130      65     19                 4007     1416     229
     Sum        2209    1099    313                68105    24045    3839
 
     Using Slab Decomposition
 
     Reading collected, re-writing distributed wavefunctions in ./out/


     Dynamical matrices for ( 4, 4, 4)  uniform grid of q-points
     (   8 q-points):
       N         xq(1)         xq(2)         xq(3) 
       1   0.000000000   0.000000000   0.000000000
       2  -0.250000000   0.250000000  -0.250000000
       3   0.500000000  -0.500000000   0.500000000
       4   0.000000000   0.500000000   0.000000000
       5   0.750000000  -0.250000000   0.750000000
       6   0.500000000   0.000000000   0.500000000
       7   0.000000000  -1.000000000   0.000000000
       8  -0.500000000  -1.000000000   0.000000000

     Number and degeneracy of irreps per q-point
       N         xq(1)         xq(2)         xq(3)   N irreps
       1   0.000000000   0.000000000   0.000000000       2
        3   3
       2  -0.250000000   0.250000000  -0.250000000       4
        1   1   2   2
       3   0.500000000  -0.500000000   0.500000000       4
        1   1   2   2
       4   0.000000000   0.500000000   0.000000000       6
     No degeneracy
       5   0.750000000  -0.250000000   0.750000000       6
     No degeneracy
       6   0.500000000   0.000000000   0.500000000       6
     No degeneracy
       7   0.000000000  -1.000000000   0.000000000       4
        1   1   2   2
       8  -0.500000000  -1.000000000   0.000000000       6
     No degeneracy

     Calculation of q =    0.0000000   0.0000000   0.0000000

     GaAs phonon dispersion: DFPT on a 4x4x4 q-grid                             

     bravais-lattice index     =            0
     lattice parameter (alat)  =      10.6829  a.u.
     unit-cell volume          =     304.7948 (a.u.)^3
     number of atoms/cell      =            2
     number of atomic types    =            2
     kinetic-energy cut-off    =      70.0000  Ry
     charge density cut-off    =     560.0000  Ry
     convergence threshold     =      1.0E-16
     beta                      =       0.7000
     number of iterations used =           12
     Exchange-correlation= PBE
                           (   1   4   3   4   0   0   0)


     celldm(1)=   10.68290  celldm(2)=    0.00000  celldm(3)=    0.00000
     celldm(4)=    0.00000  celldm(5)=    0.00000  celldm(6)=    0.00000

     crystal axes: (cart. coord. in units of alat)
               a(1) = ( -0.5000  0.0000  0.5000 )  
               a(2) = (  0.0000  0.5000  0.5000 )  
               a(3) = ( -0.5000  0.5000  0.0000 )  

     reciprocal axes: (cart. coord. in units 2 pi/alat)
               b(1) = ( -1.0000 -1.0000  1.0000 )  
               b(2) = (  1.0000  1.0000  1.0000 )  
               b(3) = ( -1.0000  1.0000 -1.0000 )  


     Atoms inside the unit cell: 

     Cartesian axes

     site n.  atom      mass           positions (alat units)
        1  Ga     69.7230   tau(    1) = (    0.00000    0.00000    0.00000  )
        2  As     74.9216   tau(    2) = (    0.25000    0.25000    0.25000  )

     Computing dynamical matrix for 
                    q = (   0.0000000   0.0000000   0.0000000 )
 
     25 Sym.Ops. (with q -> -q+G )


     G cutoff = 1618.8500  (   4007 G-vectors)     FFT grid: ( 60, 60, 60)
     G cutoff =  809.4250  (   1416 G-vectors)  smooth grid: ( 45, 45, 45)
     number of k points=    72

     PseudoPot. # 1 for Ga read from file:
     ./Ga.pbe-dn-kjpaw_psl.0.2.upf
     MD5 check sum: f703b3f64ba021741ea9c16c693bf590
     Pseudo is Projector augmented-wave + core cor, Zval = 13.0
     Generated using "atomic" code by A. Dal Corso  v.5.0.99 svn rev. 10869
     Shape of augmentation charge: BESSEL
     Using radial grid of 1205 points,  6 beta functions with: 
                l(1) =   0
                l(2) =   0
                l(3) =   1
                l(4) =   1
                l(5) =   2
                l(6) =   2
     Q(r) pseudized with 0 coefficients 


     PseudoPot. # 2 for As read from file:
     ./As.pbe-n-kjpaw_psl.0.2.upf
     MD5 check sum: 076d91deeb42e24e5cc35739acc2a16c
     Pseudo is Projector augmented-wave + core cor, Zval =  5.0
     Generated using "atomic" code by A. Dal Corso  v.5.0.99 svn rev. 10869
     Shape of augmentation charge: PSQ
     Using radial grid of 1209 points,  4 beta functions with: 
                l(1) =   0
                l(2) =   0
                l(3) =   1
                l(4) =   1
     Q(r) pseudized with 0 coefficients 


     Mode symmetry, T_d (-43m)  point group:


     Electric field:
     Dielectric constant
     Born effective charges in two ways 


     Atomic displacements:
     There are    2 irreducible representations

     Representation     1      3 modes -  To be done

     Representation     2      3 modes -  To be done



     Alpha used in Ewald sum =   2.8000
     PHONON       :      2.90s CPU      4.86s WALL


     Electric Fields Calculation

      iter #   1 total cpu time :    21.1 secs   av.it.:   5.4
      thresh= 1.000E-02 alpha_mix =  0.700 |ddv_scf|^2 =  2.332E-08

      iter #   2 total cpu time :    29.7 secs   av.it.:  11.7
      thresh= 1.527E-05 alpha_mix =  0.700 |ddv_scf|^2 =  1.699E-09

      iter #   3 total cpu time :    38.3 secs   av.it.:  11.2
      thresh= 4.122E-06 alpha_mix =  0.700 |ddv_scf|^2 =  1.360E-10

      iter #   4 total cpu time :    47.6 secs   av.it.:  11.4
      thresh= 1.166E-06 alpha_mix =  0.700 |ddv_scf|^2 =  1.764E-12

      iter #   5 total cpu time :    56.5 secs   av.it.:  11.6
      thresh= 1.328E-07 alpha_mix =  0.700 |ddv_scf|^2 =  6.315E-15

      iter #   6 total cpu time :    65.5 secs   av.it.:  11.7
      thresh= 7.947E-09 alpha_mix =  0.700 |ddv_scf|^2 =  3.740E-16

      iter #   7 total cpu time :    74.0 secs   av.it.:  11.4
      thresh= 1.934E-09 alpha_mix =  0.700 |ddv_scf|^2 =  4.732E-18

     End of electric fields calculation

          Dielectric constant in cartesian axis 

          (      17.837485481      -0.000000000       0.000000000 )
          (       0.000000000      17.837485481      -0.000000000 )
          (       0.000000000      -0.000000000      17.837485481 )

          Effective charges (d Force / dE) in cartesian axis without acoustic sum rule applied (asr)

           atom    1  Ga    Mean Z*:        2.13960
      Ex  (        2.13960       -0.00000        0.00000 )
      Ey  (       -0.00000        2.13960        0.00000 )
      Ez  (        0.00000        0.00000        2.13960 )
           atom    2  As    Mean Z*:       -2.18087
      Ex  (       -2.18087       -0.00000       -0.00000 )
      Ey  (        0.00000       -2.18087       -0.00000 )
      Ez  (       -0.00000       -0.00000       -2.18087 )

          Effective charges Sum: Mean:       -0.04126
             -0.04126       -0.00000        0.00000
             -0.00000       -0.04126       -0.00000
              0.00000       -0.00000       -0.04126

          Effective charges (d Force / dE) in cartesian axis with asr applied: 
           atom    1  Ga    Mean Z*:        2.16024
      E*x (        2.16024       -0.00000        0.00000 )
      E*y (       -0.00000        2.16024        0.00000 )
      E*z (        0.00000        0.00000        2.16024 )
           atom    2  As    Mean Z*:       -2.16024
      E*x (       -2.16024        0.00000       -0.00000 )
      E*y (        0.00000       -2.16024       -0.00000 )
      E*z (       -0.00000       -0.00000       -2.16024 )


     Representation #   1 modes #   1   2   3

     Self-consistent Calculation

      iter #   1 total cpu time :    86.6 secs   av.it.:   4.7
      thresh= 1.000E-02 alpha_mix =  0.700 |ddv_scf|^2 =  6.433E-09

      iter #   2 total cpu time :    95.3 secs   av.it.:  12.0
      thresh= 8.021E-06 alpha_mix =  0.700 |ddv_scf|^2 =  2.458E-10

      iter #   3 total cpu time :   104.6 secs   av.it.:  11.8
      thresh= 1.568E-06 alpha_mix =  0.700 |ddv_scf|^2 =  2.152E-11

      iter #   4 total cpu time :   113.9 secs   av.it.:  11.7
      thresh= 4.639E-07 alpha_mix =  0.700 |ddv_scf|^2 =  3.528E-13

      iter #   5 total cpu time :   123.2 secs   av.it.:  12.0
      thresh= 5.940E-08 alpha_mix =  0.700 |ddv_scf|^2 =  5.146E-15

      iter #   6 total cpu time :   132.5 secs   av.it.:  11.9
      thresh= 7.174E-09 alpha_mix =  0.700 |ddv_scf|^2 =  2.109E-16

      iter #   7 total cpu time :   142.8 secs   av.it.:  11.9
      thresh= 1.452E-09 alpha_mix =  0.700 |ddv_scf|^2 =  2.485E-18

     End of self-consistent calculation

     Convergence has been achieved 


     Representation #   2 modes #   4   5   6

     Self-consistent Calculation

      iter #   1 total cpu time :   150.9 secs   av.it.:   6.7
      thresh= 1.000E-02 alpha_mix =  0.700 |ddv_scf|^2 =  4.586E-07

      iter #   2 total cpu time :   160.2 secs   av.it.:  12.4
      thresh= 6.772E-05 alpha_mix =  0.700 |ddv_scf|^2 =  9.563E-09

      iter #   3 total cpu time :   169.1 secs   av.it.:  12.0
      thresh= 9.779E-06 alpha_mix =  0.700 |ddv_scf|^2 =  2.966E-10

      iter #   4 total cpu time :   178.8 secs   av.it.:  11.4
      thresh= 1.722E-06 alpha_mix =  0.700 |ddv_scf|^2 =  2.428E-12

      iter #   5 total cpu time :   188.1 secs   av.it.:  11.9
      thresh= 1.558E-07 alpha_mix =  0.700 |ddv_scf|^2 =  9.985E-14

      iter #   6 total cpu time :   196.9 secs   av.it.:  11.7
      thresh= 3.160E-08 alpha_mix =  0.700 |ddv_scf|^2 =  5.018E-15

      iter #   7 total cpu time :   207.7 secs   av.it.:  11.5
      thresh= 7.084E-09 alpha_mix =  0.700 |ddv_scf|^2 =  4.102E-17

     End of self-consistent calculation

     Convergence has been achieved 
 
     Number of q in the star =    1
     List of q in the star:
          1   0.000000000   0.000000000   0.000000000

          Dielectric constant in cartesian axis 

          (      17.837485481      -0.000000000       0.000000000 )
          (       0.000000000      17.837485481      -0.000000000 )
          (       0.000000000      -0.000000000      17.837485481 )

          Effective charges (d Force / dE) in cartesian axis without acoustic sum rule applied (asr)

           atom    1  Ga    Mean Z*:        2.13960
      Ex  (        2.13960       -0.00000        0.00000 )
      Ey  (       -0.00000        2.13960        0.00000 )
      Ez  (        0.00000        0.00000        2.13960 )
           atom    2  As    Mean Z*:       -2.18087
      Ex  (       -2.18087       -0.00000       -0.00000 )
      Ey  (        0.00000       -2.18087       -0.00000 )
      Ez  (       -0.00000       -0.00000       -2.18087 )

          Effective charges Sum: Mean:       -0.04126
             -0.04126       -0.00000        0.00000
             -0.00000       -0.04126       -0.00000
              0.00000       -0.00000       -0.04126

          Effective charges (d Force / dE) in cartesian axis with asr applied: 
           atom    1  Ga    Mean Z*:        2.16024
      E*x (        2.16024       -0.00000        0.00000 )
      E*y (       -0.00000        2.16024        0.00000 )
      E*z (        0.00000        0.00000        2.16024 )
           atom    2  As    Mean Z*:       -2.16024
      E*x (       -2.16024        0.00000       -0.00000 )
      E*y (        0.00000       -2.16024       -0.00000 )
      E*z (       -0.00000       -0.00000       -2.16024 )

          Effective charges (d P / du) in cartesian axis 

           atom      1Ga    
      Px  (        2.13975       -0.00000        0.00000 )
      Py  (        0.00000        2.13975        0.00000 )
      Pz  (        0.00000        0.00000        2.13975 )
           atom      2As    
      Px  (       -2.18092        0.00000        0.00000 )
      Py  (        0.00000       -2.18092        0.00000 )
      Pz  (        0.00000        0.00000       -2.18092 )

     Diagonalizing the dynamical matrix

     q = (    0.000000000   0.000000000   0.000000000 ) 

 **************************************************************************
     freq (    1) =      -0.105349 [THz] =      -3.514061 [cm-1]
     freq (    2) =      -0.105349 [THz] =      -3.514061 [cm-1]
     freq (    3) =      -0.105349 [THz] =      -3.514061 [cm-1]
     freq (    4) =       8.084680 [THz] =     269.675882 [cm-1]
     freq (    5) =       8.084680 [THz] =     269.675882 [cm-1]
     freq (    6) =       8.084680 [THz] =     269.675882 [cm-1]
 **************************************************************************

     Mode symmetry, T_d (-43m)  point group:

     freq (   1-   3) =         -3.5  [cm-1]   --> T_2  G_15 P_4   I+R
     freq (   4-   6) =        269.7  [cm-1]   --> T_2  G_15 P_4   I+R

     Calculation of q =   -0.2500000   0.2500000  -0.2500000
 
     Parallelization info
     --------------------
     sticks:   dense  smooth     PW     G-vecs:    dense   smooth      PW
     Min         129      64     20                 4004     1413     250
     Max         130      65     21                 4007     1416     252
     Sum        2209    1099    349                68105    24045    4279
 
     Using Slab Decomposition
 

     Title: 
     GaAs phonon dispersion: DFPT on a 4x4x4 q-grid                             


     bravais-lattice index     =            0
     lattice parameter (alat)  =      10.6829  a.u.
     unit-cell volume          =     304.7948 (a.u.)^3
     number of atoms/cell      =            2
     number of atomic types    =            2
     number of electrons       =        18.00
     number of Kohn-Sham states=            9
     kinetic-energy cutoff     =      70.0000  Ry
     charge density cutoff     =     560.0000  Ry
     Exchange-correlation= PBE
                           (   1   4   3   4   0   0   0)

     celldm(1)=  10.682900  celldm(2)=   0.000000  celldm(3)=   0.000000
     celldm(4)=   0.000000  celldm(5)=   0.000000  celldm(6)=   0.000000

     crystal axes: (cart. coord. in units of alat)
               a(1) = (  -0.500000   0.000000   0.500000 )  
               a(2) = (   0.000000   0.500000   0.500000 )  
               a(3) = (  -0.500000   0.500000   0.000000 )  

     reciprocal axes: (cart. coord. in units 2 pi/alat)
               b(1) = ( -1.000000 -1.000000  1.000000 )  
               b(2) = (  1.000000  1.000000  1.000000 )  
               b(3) = ( -1.000000  1.000000 -1.000000 )  


     PseudoPot. # 1 for Ga read from file:
     ./Ga.pbe-dn-kjpaw_psl.0.2.upf
     MD5 check sum: f703b3f64ba021741ea9c16c693bf590
     Pseudo is Projector augmented-wave + core cor, Zval = 13.0
     Generated using "atomic" code by A. Dal Corso  v.5.0.99 svn rev. 10869
     Shape of augmentation charge: BESSEL
     Using radial grid of 1205 points,  6 beta functions with: 
                l(1) =   0
                l(2) =   0
                l(3) =   1
                l(4) =   1
                l(5) =   2
                l(6) =   2
     Q(r) pseudized with 0 coefficients 


     PseudoPot. # 2 for As read from file:
     ./As.pbe-n-kjpaw_psl.0.2.upf
     MD5 check sum: 076d91deeb42e24e5cc35739acc2a16c
     Pseudo is Projector augmented-wave + core cor, Zval =  5.0
     Generated using "atomic" code by A. Dal Corso  v.5.0.99 svn rev. 10869
     Shape of augmentation charge: PSQ
     Using radial grid of 1209 points,  4 beta functions with: 
                l(1) =   0
                l(2) =   0
                l(3) =   1
                l(4) =   1
     Q(r) pseudized with 0 coefficients 


     atomic species   valence    mass     pseudopotential
     Ga               13.00    69.72300     Ga( 1.00)
     As                5.00    74.92160     As( 1.00)

     24 Sym. Ops. (no inversion) found



   Cartesian axes

     site n.     atom                  positions (alat units)
         1        Ga     tau(   1) = (   0.0000000   0.0000000   0.0000000  )
         2        As     tau(   2) = (   0.2500000   0.2500000   0.2500000  )

     number of k points=   728

     Number of k-points >= 100: set verbosity='high' to print them.

     Dense  grid:    68105 G-vectors     FFT dimensions: (  60,  60,  60)

     Smooth grid:    24045 G-vectors     FFT dimensions: (  45,  45,  45)

     Estimated max dynamical RAM per process >       8.45 MB

     Estimated total dynamical RAM >     574.60 MB

     The potential is recalculated from file :
     ./out/_ph0/gaas.save/charge-density

     Starting wfcs are   13 atomic wfcs
     Checking if some PAW data can be deallocated... 

     Band Structure Calculation
     Davidson diagonalization with overlap

     ethr =  5.56E-11,  avg # of iterations = 11.7

     total cpu time spent up to now is       22.3 secs

     End of band structure calculation

     Number of k-points >= 100: set verbosity='high' to print the bands.

     highest occupied level (ev):     7.6145

     Writing config to output data dir ./out/_ph0/gaas.save/ :
     XML data file

     GaAs phonon dispersion: DFPT on a 4x4x4 q-grid                             

     bravais-lattice index     =            0
     lattice parameter (alat)  =      10.6829  a.u.
     unit-cell volume          =     304.7948 (a.u.)^3
     number of atoms/cell      =            2
     number of atomic types    =            2
     kinetic-energy cut-off    =      70.0000  Ry
     charge density cut-off    =     560.0000  Ry
     convergence threshold     =      1.0E-16
     beta                      =       0.7000
     number of iterations used =           12
     Exchange-correlation= PBE
                           (   1   4   3   4   0   0   0)


     celldm(1)=   10.68290  celldm(2)=    0.00000  celldm(3)=    0.00000
     celldm(4)=    0.00000  celldm(5)=    0.00000  celldm(6)=    0.00000

     crystal axes: (cart. coord. in units of alat)
               a(1) = ( -0.5000  0.0000  0.5000 )  
               a(2) = (  0.0000  0.5000  0.5000 )  
               a(3) = ( -0.5000  0.5000  0.0000 )  

     reciprocal axes: (cart. coord. in units 2 pi/alat)
               b(1) = ( -1.0000 -1.0000  1.0000 )  
               b(2) = (  1.0000  1.0000  1.0000 )  
               b(3) = ( -1.0000  1.0000 -1.0000 )  


     Atoms inside the unit cell: 

     Cartesian axes

     site n.  atom      mass           positions (alat units)
        1  Ga     69.7230   tau(    1) = (    0.00000    0.00000    0.00000  )
        2  As     74.9216   tau(    2) = (    0.25000    0.25000    0.25000  )

     Computing dynamical matrix for 
                    q = (  -0.2500000   0.2500000  -0.2500000 )
 
      6 Sym.Ops. (no q -> -q+G )


     G cutoff = 1618.8500  (   4007 G-vectors)     FFT grid: ( 60, 60, 60)
     G cutoff =  809.4250  (   1416 G-vectors)  smooth grid: ( 45, 45, 45)
     number of k points=   728

     PseudoPot. # 1 for Ga read from file:
     ./Ga.pbe-dn-kjpaw_psl.0.2.upf
     MD5 check sum: f703b3f64ba021741ea9c16c693bf590
     Pseudo is Projector augmented-wave + core cor, Zval = 13.0
     Generated using "atomic" code by A. Dal Corso  v.5.0.99 svn rev. 10869
     Shape of augmentation charge: BESSEL
     Using radial grid of 1205 points,  6 beta functions with: 
                l(1) =   0
                l(2) =   0
                l(3) =   1
                l(4) =   1
                l(5) =   2
                l(6) =   2
     Q(r) pseudized with 0 coefficients 


     PseudoPot. # 2 for As read from file:
     ./As.pbe-n-kjpaw_psl.0.2.upf
     MD5 check sum: 076d91deeb42e24e5cc35739acc2a16c
     Pseudo is Projector augmented-wave + core cor, Zval =  5.0
     Generated using "atomic" code by A. Dal Corso  v.5.0.99 svn rev. 10869
     Shape of augmentation charge: PSQ
     Using radial grid of 1209 points,  4 beta functions with: 
                l(1) =   0
                l(2) =   0
                l(3) =   1
                l(4) =   1
     Q(r) pseudized with 0 coefficients 


     Mode symmetry, C_3v (3m)   point group:


     Atomic displacements:
     There are    4 irreducible representations

     Representation     1      1 modes -  To be done

     Representation     2      1 modes -  To be done

     Representation     3      2 modes -  To be done

     Representation     4      2 modes -  To be done


     Message from routine init_vloc:
     Interpolation table for Vloc re-allocated

     Alpha used in Ewald sum =   2.8000
     PHONON       :   3m39.40s CPU   3m57.43s WALL



     Representation #   1 mode #   1

     Self-consistent Calculation

      iter #   1 total cpu time :   245.8 secs   av.it.:   7.2
      thresh= 1.000E-02 alpha_mix =  0.700 |ddv_scf|^2 =  6.092E-04

      iter #   2 total cpu time :   255.1 secs   av.it.:   9.5
      thresh= 2.468E-03 alpha_mix =  0.700 |ddv_scf|^2 =  7.823E-03

      iter #   3 total cpu time :   265.1 secs   av.it.:   7.9
      thresh= 8.845E-03 alpha_mix =  0.700 |ddv_scf|^2 =  3.899E-07

      iter #   4 total cpu time :   275.7 secs   av.it.:  10.7
      thresh= 6.244E-05 alpha_mix =  0.700 |ddv_scf|^2 =  4.631E-08

      iter #   5 total cpu time :   285.4 secs   av.it.:  10.7
      thresh= 2.152E-05 alpha_mix =  0.700 |ddv_scf|^2 =  2.172E-09

      iter #   6 total cpu time :   296.4 secs   av.it.:  11.0
      thresh= 4.660E-06 alpha_mix =  0.700 |ddv_scf|^2 =  4.173E-10

      iter #   7 total cpu time :   306.7 secs   av.it.:  10.7
      thresh= 2.043E-06 alpha_mix =  0.700 |ddv_scf|^2 =  1.057E-09

      iter #   8 total cpu time :   314.8 secs   av.it.:   8.0
      thresh= 3.251E-06 alpha_mix =  0.700 |ddv_scf|^2 =  2.493E-11

      iter #   9 total cpu time :   325.8 secs   av.it.:   9.8
      thresh= 4.993E-07 alpha_mix =  0.700 |ddv_scf|^2 =  5.316E-13

      iter #  10 total cpu time :   335.0 secs   av.it.:   9.7
      thresh= 7.291E-08 alpha_mix =  0.700 |ddv_scf|^2 =  2.183E-14

      iter #  11 total cpu time :   344.1 secs   av.it.:   9.6
      thresh= 1.477E-08 alpha_mix =  0.700 |ddv_scf|^2 =  2.031E-16

      iter #  12 total cpu time :   354.1 secs   av.it.:  10.4
      thresh= 1.425E-09 alpha_mix =  0.700 |ddv_scf|^2 =  4.981E-17

     End of self-consistent calculation

     Convergence has been achieved 


     Representation #   2 mode #   2

     Self-consistent Calculation

      iter #   1 total cpu time :   361.9 secs   av.it.:   5.2
      thresh= 1.000E-02 alpha_mix =  0.700 |ddv_scf|^2 =  9.529E-05

      iter #   2 total cpu time :   371.1 secs   av.it.:   9.3
      thresh= 9.762E-04 alpha_mix =  0.700 |ddv_scf|^2 =  1.248E-03

      iter #   3 total cpu time :   380.2 secs   av.it.:   7.9
      thresh= 3.532E-03 alpha_mix =  0.700 |ddv_scf|^2 =  5.854E-08

      iter #   4 total cpu time :   390.3 secs   av.it.:  10.0
      thresh= 2.420E-05 alpha_mix =  0.700 |ddv_scf|^2 =  3.279E-09

      iter #   5 total cpu time :   400.1 secs   av.it.:  10.6
      thresh= 5.726E-06 alpha_mix =  0.700 |ddv_scf|^2 =  4.504E-10

      iter #   6 total cpu time :   409.7 secs   av.it.:  10.3
      thresh= 2.122E-06 alpha_mix =  0.700 |ddv_scf|^2 =  9.227E-11

      iter #   7 total cpu time :   419.6 secs   av.it.:   9.6
      thresh= 9.606E-07 alpha_mix =  0.700 |ddv_scf|^2 =  4.210E-11

      iter #   8 total cpu time :   429.1 secs   av.it.:  10.0
      thresh= 6.488E-07 alpha_mix =  0.700 |ddv_scf|^2 =  4.761E-13

      iter #   9 total cpu time :   439.2 secs   av.it.:   9.8
      thresh= 6.900E-08 alpha_mix =  0.700 |ddv_scf|^2 =  3.257E-14

      iter #  10 total cpu time :   448.8 secs   av.it.:   9.5
      thresh= 1.805E-08 alpha_mix =  0.700 |ddv_scf|^2 =  4.380E-16

      iter #  11 total cpu time :   458.0 secs   av.it.:   9.7
      thresh= 2.093E-09 alpha_mix =  0.700 |ddv_scf|^2 =  3.661E-17

     End of self-consistent calculation

     Convergence has been achieved 


     Representation #   3 modes #   3   4

     Self-consistent Calculation

      iter #   1 total cpu time :   471.1 secs   av.it.:   4.8
      thresh= 1.000E-02 alpha_mix =  0.700 |ddv_scf|^2 =  1.902E-08

      iter #   2 total cpu time :   493.4 secs   av.it.:  11.7
      thresh= 1.379E-05 alpha_mix =  0.700 |ddv_scf|^2 =  9.575E-10

      iter #   3 total cpu time :   514.7 secs   av.it.:  12.0
      thresh= 3.094E-06 alpha_mix =  0.700 |ddv_scf|^2 =  6.587E-11

      iter #   4 total cpu time :   536.7 secs   av.it.:  11.3
      thresh= 8.116E-07 alpha_mix =  0.700 |ddv_scf|^2 =  8.324E-13

      iter #   5 total cpu time :   557.8 secs   av.it.:  11.8
      thresh= 9.124E-08 alpha_mix =  0.700 |ddv_scf|^2 =  1.170E-14

      iter #   6 total cpu time :   579.4 secs   av.it.:  11.3
      thresh= 1.082E-08 alpha_mix =  0.700 |ddv_scf|^2 =  4.517E-16

      iter #   7 total cpu time :   600.4 secs   av.it.:  11.5
      thresh= 2.125E-09 alpha_mix =  0.700 |ddv_scf|^2 =  9.151E-18

     End of self-consistent calculation

     Convergence has been achieved 


     Representation #   4 modes #   5   6

     Self-consistent Calculation

      iter #   1 total cpu time :   615.2 secs   av.it.:   6.7
      thresh= 1.000E-02 alpha_mix =  0.700 |ddv_scf|^2 =  1.161E-06

      iter #   2 total cpu time :   637.0 secs   av.it.:  11.9
      thresh= 1.078E-04 alpha_mix =  0.700 |ddv_scf|^2 =  4.888E-08

      iter #   3 total cpu time :   658.3 secs   av.it.:  11.8
      thresh= 2.211E-05 alpha_mix =  0.700 |ddv_scf|^2 =  9.288E-10

      iter #   4 total cpu time :   678.7 secs   av.it.:  11.2
      thresh= 3.048E-06 alpha_mix =  0.700 |ddv_scf|^2 =  8.557E-11

      iter #   5 total cpu time :   699.9 secs   av.it.:  10.9
      thresh= 9.250E-07 alpha_mix =  0.700 |ddv_scf|^2 =  6.098E-13

      iter #   6 total cpu time :   721.1 secs   av.it.:  11.6
      thresh= 7.809E-08 alpha_mix =  0.700 |ddv_scf|^2 =  1.336E-14

      iter #   7 total cpu time :   742.1 secs   av.it.:  10.9
      thresh= 1.156E-08 alpha_mix =  0.700 |ddv_scf|^2 =  2.202E-16

      iter #   8 total cpu time :   761.9 secs   av.it.:  10.9
      thresh= 1.484E-09 alpha_mix =  0.700 |ddv_scf|^2 =  3.034E-18

     End of self-consistent calculation

     Convergence has been achieved 
 
     Number of q in the star =    4
     List of q in the star:
          1  -0.250000000   0.250000000  -0.250000000
          2   0.250000000  -0.250000000  -0.250000000
          3  -0.250000000  -0.250000000   0.250000000
          4   0.250000000   0.250000000   0.250000000
     In addition there is the -q list: 
          1   0.250000000  -0.250000000   0.250000000
          2  -0.250000000   0.250000000   0.250000000
          3   0.250000000   0.250000000  -0.250000000
          4  -0.250000000  -0.250000000  -0.250000000

     Diagonalizing the dynamical matrix

     q = (   -0.250000000   0.250000000  -0.250000000 ) 

 **************************************************************************
     freq (    1) =       1.437182 [THz] =      47.939216 [cm-1]
     freq (    2) =       1.437182 [THz] =      47.939216 [cm-1]
     freq (    3) =       3.850851 [THz] =     128.450563 [cm-1]
     freq (    4) =       7.916238 [THz] =     264.057273 [cm-1]
     freq (    5) =       7.916238 [THz] =     264.057273 [cm-1]
     freq (    6) =       8.197891 [THz] =     273.452206 [cm-1]
 **************************************************************************

     Mode symmetry, C_3v (3m)   point group:

     freq (   1-   2) =         47.9  [cm-1]   --> E    L_3           
     freq (   3-   3) =        128.5  [cm-1]   --> A_1  L_1           
     freq (   4-   5) =        264.1  [cm-1]   --> E    L_3           
     freq (   6-   6) =        273.5  [cm-1]   --> A_1  L_1           

     Calculation of q =    0.5000000  -0.5000000   0.5000000
 
     Parallelization info
     --------------------
     sticks:   dense  smooth     PW     G-vecs:    dense   smooth      PW
     Min         129      64     21                 4004     1413     268
     Max         130      65     22                 4007     1416     270
     Sum        2209    1099    361                68105    24045    4573
 
     Using Slab Decomposition
 

     Title: 
     GaAs phonon dispersion: DFPT on a 4x4x4 q-grid                             


     bravais-lattice index     =            0
     lattice parameter (alat)  =      10.6829  a.u.
     unit-cell volume          =     304.7948 (a.u.)^3
     number of atoms/cell      =            2
     number of atomic types    =            2
     number of electrons       =        18.00
     number of Kohn-Sham states=            9
     kinetic-energy cutoff     =      70.0000  Ry
     charge density cutoff     =     560.0000  Ry
     Exchange-correlation= PBE
                           (   1   4   3   4   0   0   0)

     celldm(1)=  10.682900  celldm(2)=   0.000000  celldm(3)=   0.000000
     celldm(4)=   0.000000  celldm(5)=   0.000000  celldm(6)=   0.000000

     crystal axes: (cart. coord. in units of alat)
               a(1) = (  -0.500000   0.000000   0.500000 )  
               a(2) = (   0.000000   0.500000   0.500000 )  
               a(3) = (  -0.500000   0.500000   0.000000 )  

     reciprocal axes: (cart. coord. in units 2 pi/alat)
               b(1) = ( -1.000000 -1.000000  1.000000 )  
               b(2) = (  1.000000  1.000000  1.000000 )  
               b(3) = ( -1.000000  1.000000 -1.000000 )  


     PseudoPot. # 1 for Ga read from file:
     ./Ga.pbe-dn-kjpaw_psl.0.2.upf
     MD5 check sum: f703b3f64ba021741ea9c16c693bf590
     Pseudo is Projector augmented-wave + core cor, Zval = 13.0
     Generated using "atomic" code by A. Dal Corso  v.5.0.99 svn rev. 10869
     Shape of augmentation charge: BESSEL
     Using radial grid of 1205 points,  6 beta functions with: 
                l(1) =   0
                l(2) =   0
                l(3) =   1
                l(4) =   1
                l(5) =   2
                l(6) =   2
     Q(r) pseudized with 0 coefficients 


     PseudoPot. # 2 for As read from file:
     ./As.pbe-n-kjpaw_psl.0.2.upf
     MD5 check sum: 076d91deeb42e24e5cc35739acc2a16c
     Pseudo is Projector augmented-wave + core cor, Zval =  5.0
     Generated using "atomic" code by A. Dal Corso  v.5.0.99 svn rev. 10869
     Shape of augmentation charge: PSQ
     Using radial grid of 1209 points,  4 beta functions with: 
                l(1) =   0
                l(2) =   0
                l(3) =   1
                l(4) =   1
     Q(r) pseudized with 0 coefficients 


     atomic species   valence    mass     pseudopotential
     Ga               13.00    69.72300     Ga( 1.00)
     As                5.00    74.92160     As( 1.00)

     24 Sym. Ops. (no inversion) found



   Cartesian axes

     site n.     atom                  positions (alat units)
         1        Ga     tau(   1) = (   0.0000000   0.0000000   0.0000000  )
         2        As     tau(   2) = (   0.2500000   0.2500000   0.2500000  )

     number of k points=   378

     Number of k-points >= 100: set verbosity='high' to print them.

     Dense  grid:    68105 G-vectors     FFT dimensions: (  60,  60,  60)

     Smooth grid:    24045 G-vectors     FFT dimensions: (  45,  45,  45)

     Estimated max dynamical RAM per process >       8.49 MB

     Estimated total dynamical RAM >     577.43 MB

     The potential is recalculated from file :
     ./out/_ph0/gaas.save/charge-density

     Starting wfcs are   13 atomic wfcs
     Checking if some PAW data can be deallocated... 

     Band Structure Calculation
     Davidson diagonalization with overlap

     ethr =  5.56E-11,  avg # of iterations = 11.7

     total cpu time spent up to now is       34.0 secs

     End of band structure calculation

     Number of k-points >= 100: set verbosity='high' to print the bands.

     highest occupied level (ev):     7.6145

     Writing config to output data dir ./out/_ph0/gaas.save/ :
     XML data file

     GaAs phonon dispersion: DFPT on a 4x4x4 q-grid                             

     bravais-lattice index     =            0
     lattice parameter (alat)  =      10.6829  a.u.
     unit-cell volume          =     304.7948 (a.u.)^3
     number of atoms/cell      =            2
     number of atomic types    =            2
     kinetic-energy cut-off    =      70.0000  Ry
     charge density cut-off    =     560.0000  Ry
     convergence threshold     =      1.0E-16
     beta                      =       0.7000
     number of iterations used =           12
     Exchange-correlation= PBE
                           (   1   4   3   4   0   0   0)


     celldm(1)=   10.68290  celldm(2)=    0.00000  celldm(3)=    0.00000
     celldm(4)=    0.00000  celldm(5)=    0.00000  celldm(6)=    0.00000

     crystal axes: (cart. coord. in units of alat)
               a(1) = ( -0.5000  0.0000  0.5000 )  
               a(2) = (  0.0000  0.5000  0.5000 )  
               a(3) = ( -0.5000  0.5000  0.0000 )  

     reciprocal axes: (cart. coord. in units 2 pi/alat)
               b(1) = ( -1.0000 -1.0000  1.0000 )  
               b(2) = (  1.0000  1.0000  1.0000 )  
               b(3) = ( -1.0000  1.0000 -1.0000 )  


     Atoms inside the unit cell: 

     Cartesian axes

     site n.  atom      mass           positions (alat units)
        1  Ga     69.7230   tau(    1) = (    0.00000    0.00000    0.00000  )
        2  As     74.9216   tau(    2) = (    0.25000    0.25000    0.25000  )

     Computing dynamical matrix for 
                    q = (   0.5000000  -0.5000000   0.5000000 )
 
      7 Sym.Ops. (with q -> -q+G )


     G cutoff = 1618.8500  (   4007 G-vectors)     FFT grid: ( 60, 60, 60)
     G cutoff =  809.4250  (   1416 G-vectors)  smooth grid: ( 45, 45, 45)
     number of k points=   378

     PseudoPot. # 1 for Ga read from file:
     ./Ga.pbe-dn-kjpaw_psl.0.2.upf
     MD5 check sum: f703b3f64ba021741ea9c16c693bf590
     Pseudo is Projector augmented-wave + core cor, Zval = 13.0
     Generated using "atomic" code by A. Dal Corso  v.5.0.99 svn rev. 10869
     Shape of augmentation charge: BESSEL
     Using radial grid of 1205 points,  6 beta functions with: 
                l(1) =   0
                l(2) =   0
                l(3) =   1
                l(4) =   1
                l(5) =   2
                l(6) =   2
     Q(r) pseudized with 0 coefficients 


     PseudoPot. # 2 for As read from file:
     ./As.pbe-n-kjpaw_psl.0.2.upf
     MD5 check sum: 076d91deeb42e24e5cc35739acc2a16c
     Pseudo is Projector augmented-wave + core cor, Zval =  5.0
     Generated using "atomic" code by A. Dal Corso  v.5.0.99 svn rev. 10869
     Shape of augmentation charge: PSQ
     Using radial grid of 1209 points,  4 beta functions with: 
                l(1) =   0
                l(2) =   0
                l(3) =   1
                l(4) =   1
     Q(r) pseudized with 0 coefficients 


     Mode symmetry, C_3v (3m)   point group:


     Atomic displacements:
     There are    4 irreducible representations

     Representation     1      1 modes -  To be done

     Representation     2      1 modes -  To be done

     Representation     3      2 modes -  To be done

     Representation     4      2 modes -  To be done



     Alpha used in Ewald sum =   2.8000
     PHONON       :  11m58.16s CPU  12m57.41s WALL



     Representation #   1 mode #   1

     Self-consistent Calculation

      iter #   1 total cpu time :   782.1 secs   av.it.:   7.1
      thresh= 1.000E-02 alpha_mix =  0.700 |ddv_scf|^2 =  6.879E-05

      iter #   2 total cpu time :   787.8 secs   av.it.:  10.6
      thresh= 8.294E-04 alpha_mix =  0.700 |ddv_scf|^2 =  1.569E-04

      iter #   3 total cpu time :   792.9 secs   av.it.:   9.3
      thresh= 1.253E-03 alpha_mix =  0.700 |ddv_scf|^2 =  6.437E-07

      iter #   4 total cpu time :   799.4 secs   av.it.:  10.4
      thresh= 8.023E-05 alpha_mix =  0.700 |ddv_scf|^2 =  5.346E-08

      iter #   5 total cpu time :   805.3 secs   av.it.:  10.1
      thresh= 2.312E-05 alpha_mix =  0.700 |ddv_scf|^2 =  4.442E-09

      iter #   6 total cpu time :   810.7 secs   av.it.:  10.1
      thresh= 6.665E-06 alpha_mix =  0.700 |ddv_scf|^2 =  1.482E-10

      iter #   7 total cpu time :   816.5 secs   av.it.:  11.4
      thresh= 1.217E-06 alpha_mix =  0.700 |ddv_scf|^2 =  3.584E-11

      iter #   8 total cpu time :   821.9 secs   av.it.:  10.7
      thresh= 5.987E-07 alpha_mix =  0.700 |ddv_scf|^2 =  3.989E-13

      iter #   9 total cpu time :   827.7 secs   av.it.:  10.7
      thresh= 6.316E-08 alpha_mix =  0.700 |ddv_scf|^2 =  9.372E-15

      iter #  10 total cpu time :   832.9 secs   av.it.:  10.1
      thresh= 9.681E-09 alpha_mix =  0.700 |ddv_scf|^2 =  9.711E-17

     End of self-consistent calculation

     Convergence has been achieved 


     Representation #   2 mode #   2

     Self-consistent Calculation

      iter #   1 total cpu time :   837.4 secs   av.it.:   5.0
      thresh= 1.000E-02 alpha_mix =  0.700 |ddv_scf|^2 =  7.408E-06

      iter #   2 total cpu time :   842.8 secs   av.it.:  10.6
      thresh= 2.722E-04 alpha_mix =  0.700 |ddv_scf|^2 =  1.864E-05

      iter #   3 total cpu time :   847.9 secs   av.it.:   9.3
      thresh= 4.318E-04 alpha_mix =  0.700 |ddv_scf|^2 =  1.798E-08

      iter #   4 total cpu time :   853.3 secs   av.it.:  10.4
      thresh= 1.341E-05 alpha_mix =  0.700 |ddv_scf|^2 =  9.209E-10

      iter #   5 total cpu time :   859.6 secs   av.it.:  10.0
      thresh= 3.035E-06 alpha_mix =  0.700 |ddv_scf|^2 =  5.149E-11

      iter #   6 total cpu time :   866.0 secs   av.it.:  11.2
      thresh= 7.176E-07 alpha_mix =  0.700 |ddv_scf|^2 =  1.314E-11

      iter #   7 total cpu time :   871.5 secs   av.it.:  10.7
      thresh= 3.625E-07 alpha_mix =  0.700 |ddv_scf|^2 =  4.515E-13

      iter #   8 total cpu time :   877.0 secs   av.it.:  10.7
      thresh= 6.719E-08 alpha_mix =  0.700 |ddv_scf|^2 =  1.890E-14

      iter #   9 total cpu time :   882.5 secs   av.it.:  10.6
      thresh= 1.375E-08 alpha_mix =  0.700 |ddv_scf|^2 =  3.193E-16

      iter #  10 total cpu time :   888.3 secs   av.it.:  10.8
      thresh= 1.787E-09 alpha_mix =  0.700 |ddv_scf|^2 =  1.118E-17

     End of self-consistent calculation

     Convergence has been achieved 


     Representation #   3 modes #   3   4

     Self-consistent Calculation

      iter #   1 total cpu time :   896.0 secs   av.it.:   4.8
      thresh= 1.000E-02 alpha_mix =  0.700 |ddv_scf|^2 =  2.315E-08

      iter #   2 total cpu time :   907.5 secs   av.it.:  11.7
      thresh= 1.522E-05 alpha_mix =  0.700 |ddv_scf|^2 =  1.423E-09

      iter #   3 total cpu time :   919.5 secs   av.it.:  11.9
      thresh= 3.772E-06 alpha_mix =  0.700 |ddv_scf|^2 =  7.697E-11

      iter #   4 total cpu time :   931.0 secs   av.it.:  11.2
      thresh= 8.773E-07 alpha_mix =  0.700 |ddv_scf|^2 =  8.816E-13

      iter #   5 total cpu time :   942.7 secs   av.it.:  11.6
      thresh= 9.390E-08 alpha_mix =  0.700 |ddv_scf|^2 =  1.634E-14

      iter #   6 total cpu time :   954.7 secs   av.it.:  11.2
      thresh= 1.278E-08 alpha_mix =  0.700 |ddv_scf|^2 =  4.455E-16

      iter #   7 total cpu time :   966.1 secs   av.it.:  11.2
      thresh= 2.111E-09 alpha_mix =  0.700 |ddv_scf|^2 =  1.886E-17

     End of self-consistent calculation

     Convergence has been achieved 


     Representation #   4 modes #   5   6

     Self-consistent Calculation

      iter #   1 total cpu time :   974.7 secs   av.it.:   6.8
      thresh= 1.000E-02 alpha_mix =  0.700 |ddv_scf|^2 =  1.272E-06

      iter #   2 total cpu time :   987.1 secs   av.it.:  11.8
      thresh= 1.128E-04 alpha_mix =  0.700 |ddv_scf|^2 =  7.562E-08

      iter #   3 total cpu time :   998.5 secs   av.it.:  11.7
      thresh= 2.750E-05 alpha_mix =  0.700 |ddv_scf|^2 =  1.150E-09

      iter #   4 total cpu time :  1009.9 secs   av.it.:  11.2
      thresh= 3.391E-06 alpha_mix =  0.700 |ddv_scf|^2 =  1.081E-10

      iter #   5 total cpu time :  1021.0 secs   av.it.:  10.8
      thresh= 1.040E-06 alpha_mix =  0.700 |ddv_scf|^2 =  7.659E-13

      iter #   6 total cpu time :  1032.4 secs   av.it.:  11.3
      thresh= 8.752E-08 alpha_mix =  0.700 |ddv_scf|^2 =  2.045E-14

      iter #   7 total cpu time :  1044.6 secs   av.it.:  11.0
      thresh= 1.430E-08 alpha_mix =  0.700 |ddv_scf|^2 =  2.388E-16

      iter #   8 total cpu time :  1058.0 secs   av.it.:  11.1
      thresh= 1.545E-09 alpha_mix =  0.700 |ddv_scf|^2 =  1.653E-18

     End of self-consistent calculation

     Convergence has been achieved 
 
     Number of q in the star =    4
     List of q in the star:
          1   0.500000000  -0.500000000   0.500000000
          2  -0.500000000   0.500000000   0.500000000
          3   0.500000000   0.500000000  -0.500000000
          4  -0.500000000  -0.500000000  -0.500000000

     Diagonalizing the dynamical matrix

     q = (    0.500000000  -0.500000000   0.500000000 ) 

 **************************************************************************
     freq (    1) =       1.622143 [THz] =      54.108881 [cm-1]
     freq (    2) =       1.622143 [THz] =      54.108881 [cm-1]
     freq (    3) =       6.082094 [THz] =     202.876830 [cm-1]
     freq (    4) =       7.163710 [THz] =     238.955641 [cm-1]
     freq (    5) =       7.883827 [THz] =     262.976169 [cm-1]
     freq (    6) =       7.883827 [THz] =     262.976169 [cm-1]
 **************************************************************************

     Mode symmetry, C_3v (3m)   point group:

     freq (   1-   2) =         54.1  [cm-1]   --> E    L_3           
     freq (   3-   3) =        202.9  [cm-1]   --> A_1  L_1           
     freq (   4-   4) =        239.0  [cm-1]   --> A_1  L_1           
     freq (   5-   6) =        263.0  [cm-1]   --> E    L_3           

     Calculation of q =    0.0000000   0.5000000   0.0000000
 
     Parallelization info
     --------------------
     sticks:   dense  smooth     PW     G-vecs:    dense   smooth      PW
     Min         129      64     20                 4004     1413     250
     Max         130      65     21                 4007     1416     252
     Sum        2209    1099    349                68105    24045    4279
 
     Using Slab Decomposition
 

     Title: 
     GaAs phonon dispersion: DFPT on a 4x4x4 q-grid                             


     bravais-lattice index     =            0
     lattice parameter (alat)  =      10.6829  a.u.
     unit-cell volume          =     304.7948 (a.u.)^3
     number of atoms/cell      =            2
     number of atomic types    =            2
     number of electrons       =        18.00
     number of Kohn-Sham states=            9
     kinetic-energy cutoff     =      70.0000  Ry
     charge density cutoff     =     560.0000  Ry
     Exchange-correlation= PBE
                           (   1   4   3   4   0   0   0)

     celldm(1)=  10.682900  celldm(2)=   0.000000  celldm(3)=   0.000000
     celldm(4)=   0.000000  celldm(5)=   0.000000  celldm(6)=   0.000000

     crystal axes: (cart. coord. in units of alat)
               a(1) = (  -0.500000   0.000000   0.500000 )  
               a(2) = (   0.000000   0.500000   0.500000 )  
               a(3) = (  -0.500000   0.500000   0.000000 )  

     reciprocal axes: (cart. coord. in units 2 pi/alat)
               b(1) = ( -1.000000 -1.000000  1.000000 )  
               b(2) = (  1.000000  1.000000  1.000000 )  
               b(3) = ( -1.000000  1.000000 -1.000000 )  


     PseudoPot. # 1 for Ga read from file:
     ./Ga.pbe-dn-kjpaw_psl.0.2.upf
     MD5 check sum: f703b3f64ba021741ea9c16c693bf590
     Pseudo is Projector augmented-wave + core cor, Zval = 13.0
     Generated using "atomic" code by A. Dal Corso  v.5.0.99 svn rev. 10869
     Shape of augmentation charge: BESSEL
     Using radial grid of 1205 points,  6 beta functions with: 
                l(1) =   0
                l(2) =   0
                l(3) =   1
                l(4) =   1
                l(5) =   2
                l(6) =   2
     Q(r) pseudized with 0 coefficients 


     PseudoPot. # 2 for As read from file:
     ./As.pbe-n-kjpaw_psl.0.2.upf
     MD5 check sum: 076d91deeb42e24e5cc35739acc2a16c
     Pseudo is Projector augmented-wave + core cor, Zval =  5.0
     Generated using "atomic" code by A. Dal Corso  v.5.0.99 svn rev. 10869
     Shape of augmentation charge: PSQ
     Using radial grid of 1209 points,  4 beta functions with: 
                l(1) =   0
                l(2) =   0
                l(3) =   1
                l(4) =   1
     Q(r) pseudized with 0 coefficients 


     atomic species   valence    mass     pseudopotential
     Ga               13.00    69.72300     Ga( 1.00)
     As                5.00    74.92160     As( 1.00)

     24 Sym. Ops. (no inversion) found



   Cartesian axes

     site n.     atom                  positions (alat units)
         1        Ga     tau(   1) = (   0.0000000   0.0000000   0.0000000  )
         2        As     tau(   2) = (   0.2500000   0.2500000   0.2500000  )

     number of k points=  1020

     Number of k-points >= 100: set verbosity='high' to print them.

     Dense  grid:    68105 G-vectors     FFT dimensions: (  60,  60,  60)

     Smooth grid:    24045 G-vectors     FFT dimensions: (  45,  45,  45)

     Estimated max dynamical RAM per process >       8.46 MB

     Estimated total dynamical RAM >     575.04 MB

     The potential is recalculated from file :
     ./out/_ph0/gaas.save/charge-density

     Starting wfcs are   13 atomic wfcs
     Checking if some PAW data can be deallocated... 

     Band Structure Calculation
     Davidson diagonalization with overlap

     ethr =  5.56E-11,  avg # of iterations = 11.7

     total cpu time spent up to now is       63.8 secs

     End of band structure calculation

     Number of k-points >= 100: set verbosity='high' to print the bands.

     highest occupied level (ev):     7.6145

     Writing config to output data dir ./out/_ph0/gaas.save/ :
     XML data file

     GaAs phonon dispersion: DFPT on a 4x4x4 q-grid                             

     bravais-lattice index     =            0
     lattice parameter (alat)  =      10.6829  a.u.
     unit-cell volume          =     304.7948 (a.u.)^3
     number of atoms/cell      =            2
     number of atomic types    =            2
     kinetic-energy cut-off    =      70.0000  Ry
     charge density cut-off    =     560.0000  Ry
     convergence threshold     =      1.0E-16
     beta                      =       0.7000
     number of iterations used =           12
     Exchange-correlation= PBE
                           (   1   4   3   4   0   0   0)


     celldm(1)=   10.68290  celldm(2)=    0.00000  celldm(3)=    0.00000
     celldm(4)=    0.00000  celldm(5)=    0.00000  celldm(6)=    0.00000

     crystal axes: (cart. coord. in units of alat)
               a(1) = ( -0.5000  0.0000  0.5000 )  
               a(2) = (  0.0000  0.5000  0.5000 )  
               a(3) = ( -0.5000  0.5000  0.0000 )  

     reciprocal axes: (cart. coord. in units 2 pi/alat)
               b(1) = ( -1.0000 -1.0000  1.0000 )  
               b(2) = (  1.0000  1.0000  1.0000 )  
               b(3) = ( -1.0000  1.0000 -1.0000 )  


     Atoms inside the unit cell: 

     Cartesian axes

     site n.  atom      mass           positions (alat units)
        1  Ga     69.7230   tau(    1) = (    0.00000    0.00000    0.00000  )
        2  As     74.9216   tau(    2) = (    0.25000    0.25000    0.25000  )

     Computing dynamical matrix for 
                    q = (   0.0000000   0.5000000   0.0000000 )
 
      4 Sym.Ops. (no q -> -q+G )


     G cutoff = 1618.8500  (   4007 G-vectors)     FFT grid: ( 60, 60, 60)
     G cutoff =  809.4250  (   1416 G-vectors)  smooth grid: ( 45, 45, 45)
     number of k points=  1020

     PseudoPot. # 1 for Ga read from file:
     ./Ga.pbe-dn-kjpaw_psl.0.2.upf
     MD5 check sum: f703b3f64ba021741ea9c16c693bf590
     Pseudo is Projector augmented-wave + core cor, Zval = 13.0
     Generated using "atomic" code by A. Dal Corso  v.5.0.99 svn rev. 10869
     Shape of augmentation charge: BESSEL
     Using radial grid of 1205 points,  6 beta functions with: 
                l(1) =   0
                l(2) =   0
                l(3) =   1
                l(4) =   1
                l(5) =   2
                l(6) =   2
     Q(r) pseudized with 0 coefficients 


     PseudoPot. # 2 for As read from file:
     ./As.pbe-n-kjpaw_psl.0.2.upf
     MD5 check sum: 076d91deeb42e24e5cc35739acc2a16c
     Pseudo is Projector augmented-wave + core cor, Zval =  5.0
     Generated using "atomic" code by A. Dal Corso  v.5.0.99 svn rev. 10869
     Shape of augmentation charge: PSQ
     Using radial grid of 1209 points,  4 beta functions with: 
                l(1) =   0
                l(2) =   0
                l(3) =   1
                l(4) =   1
     Q(r) pseudized with 0 coefficients 


     Mode symmetry, C_2v (mm2)  point group:


     Atomic displacements:
     There are    6 irreducible representations

     Representation     1      1 modes -  To be done

     Representation     2      1 modes -  To be done

     Representation     3      1 modes -  To be done

     Representation     4      1 modes -  To be done

     Representation     5      1 modes -  To be done

     Representation     6      1 modes -  To be done



     Alpha used in Ewald sum =   2.8000
     PHONON       :  16m48.77s CPU  18m14.49s WALL



     Representation #   1 mode #   1

     Self-consistent Calculation

      iter #   1 total cpu time :  1104.1 secs   av.it.:   5.1
      thresh= 1.000E-02 alpha_mix =  0.700 |ddv_scf|^2 =  5.972E-05

      iter #   2 total cpu time :  1118.2 secs   av.it.:   9.4
      thresh= 7.728E-04 alpha_mix =  0.700 |ddv_scf|^2 =  6.989E-04

      iter #   3 total cpu time :  1130.1 secs   av.it.:   8.0
      thresh= 2.644E-03 alpha_mix =  0.700 |ddv_scf|^2 =  1.350E-08

      iter #   4 total cpu time :  1143.9 secs   av.it.:  10.7
      thresh= 1.162E-05 alpha_mix =  0.700 |ddv_scf|^2 =  4.899E-09

      iter #   5 total cpu time :  1157.0 secs   av.it.:  10.5
      thresh= 6.999E-06 alpha_mix =  0.700 |ddv_scf|^2 =  4.596E-10

      iter #   6 total cpu time :  1172.9 secs   av.it.:  10.3
      thresh= 2.144E-06 alpha_mix =  0.700 |ddv_scf|^2 =  3.173E-11

      iter #   7 total cpu time :  1186.3 secs   av.it.:  10.7
      thresh= 5.633E-07 alpha_mix =  0.700 |ddv_scf|^2 =  2.504E-13

      iter #   8 total cpu time :  1200.4 secs   av.it.:  10.9
      thresh= 5.004E-08 alpha_mix =  0.700 |ddv_scf|^2 =  1.767E-14

      iter #   9 total cpu time :  1213.4 secs   av.it.:  10.4
      thresh= 1.329E-08 alpha_mix =  0.700 |ddv_scf|^2 =  4.691E-14

      iter #  10 total cpu time :  1227.6 secs   av.it.:   9.2
      thresh= 2.166E-08 alpha_mix =  0.700 |ddv_scf|^2 =  6.855E-17

     End of self-consistent calculation

     Convergence has been achieved 


     Representation #   2 mode #   2

     Self-consistent Calculation

      iter #   1 total cpu time :  1238.3 secs   av.it.:   7.2
      thresh= 1.000E-02 alpha_mix =  0.700 |ddv_scf|^2 =  3.629E-04

      iter #   2 total cpu time :  1251.1 secs   av.it.:   9.7
      thresh= 1.905E-03 alpha_mix =  0.700 |ddv_scf|^2 =  3.983E-03

      iter #   3 total cpu time :  1262.8 secs   av.it.:   8.1
      thresh= 6.311E-03 alpha_mix =  0.700 |ddv_scf|^2 =  1.966E-06

      iter #   4 total cpu time :  1275.2 secs   av.it.:   9.8
      thresh= 1.402E-04 alpha_mix =  0.700 |ddv_scf|^2 =  2.080E-08

      iter #   5 total cpu time :  1291.2 secs   av.it.:  11.2
      thresh= 1.442E-05 alpha_mix =  0.700 |ddv_scf|^2 =  2.578E-09

      iter #   6 total cpu time :  1304.8 secs   av.it.:  10.9
      thresh= 5.078E-06 alpha_mix =  0.700 |ddv_scf|^2 =  4.678E-11

      iter #   7 total cpu time :  1319.3 secs   av.it.:  10.8
      thresh= 6.840E-07 alpha_mix =  0.700 |ddv_scf|^2 =  2.953E-13

      iter #   8 total cpu time :  1333.6 secs   av.it.:  10.4
      thresh= 5.434E-08 alpha_mix =  0.700 |ddv_scf|^2 =  9.832E-14

      iter #   9 total cpu time :  1348.1 secs   av.it.:   9.0
      thresh= 3.136E-08 alpha_mix =  0.700 |ddv_scf|^2 =  1.605E-13

      iter #  10 total cpu time :  1359.4 secs   av.it.:   8.2
      thresh= 4.006E-08 alpha_mix =  0.700 |ddv_scf|^2 =  5.431E-17

     End of self-consistent calculation

     Convergence has been achieved 


     Representation #   3 mode #   3

     Self-consistent Calculation

      iter #   1 total cpu time :  1369.7 secs   av.it.:   6.8
      thresh= 1.000E-02 alpha_mix =  0.700 |ddv_scf|^2 =  6.096E-06

      iter #   2 total cpu time :  1384.2 secs   av.it.:  11.1
      thresh= 2.469E-04 alpha_mix =  0.700 |ddv_scf|^2 =  6.701E-07

      iter #   3 total cpu time :  1400.0 secs   av.it.:  10.6
      thresh= 8.186E-05 alpha_mix =  0.700 |ddv_scf|^2 =  4.798E-09

      iter #   4 total cpu time :  1414.1 secs   av.it.:  10.6
      thresh= 6.926E-06 alpha_mix =  0.700 |ddv_scf|^2 =  5.039E-10

      iter #   5 total cpu time :  1426.5 secs   av.it.:   9.4
      thresh= 2.245E-06 alpha_mix =  0.700 |ddv_scf|^2 =  2.269E-12

      iter #   6 total cpu time :  1440.3 secs   av.it.:  10.4
      thresh= 1.506E-07 alpha_mix =  0.700 |ddv_scf|^2 =  4.721E-14

      iter #   7 total cpu time :  1453.5 secs   av.it.:   9.9
      thresh= 2.173E-08 alpha_mix =  0.700 |ddv_scf|^2 =  4.553E-16

      iter #   8 total cpu time :  1468.5 secs   av.it.:  10.0
      thresh= 2.134E-09 alpha_mix =  0.700 |ddv_scf|^2 =  9.156E-18

     End of self-consistent calculation

     Convergence has been achieved 


     Representation #   4 mode #   4

     Self-consistent Calculation

      iter #   1 total cpu time :  1477.1 secs   av.it.:   4.9
      thresh= 1.000E-02 alpha_mix =  0.700 |ddv_scf|^2 =  1.411E-07

      iter #   2 total cpu time :  1490.7 secs   av.it.:  10.7
      thresh= 3.756E-05 alpha_mix =  0.700 |ddv_scf|^2 =  1.394E-08

      iter #   3 total cpu time :  1505.1 secs   av.it.:  10.7
      thresh= 1.181E-05 alpha_mix =  0.700 |ddv_scf|^2 =  3.953E-10

      iter #   4 total cpu time :  1518.6 secs   av.it.:  10.1
      thresh= 1.988E-06 alpha_mix =  0.700 |ddv_scf|^2 =  4.011E-12

      iter #   5 total cpu time :  1533.3 secs   av.it.:  10.5
      thresh= 2.003E-07 alpha_mix =  0.700 |ddv_scf|^2 =  1.189E-13

      iter #   6 total cpu time :  1546.1 secs   av.it.:  10.2
      thresh= 3.448E-08 alpha_mix =  0.700 |ddv_scf|^2 =  1.836E-15

      iter #   7 total cpu time :  1560.4 secs   av.it.:  10.4
      thresh= 4.284E-09 alpha_mix =  0.700 |ddv_scf|^2 =  2.444E-17

     End of self-consistent calculation

     Convergence has been achieved 


     Representation #   5 mode #   5

     Self-consistent Calculation

      iter #   1 total cpu time :  1569.0 secs   av.it.:   4.9
      thresh= 1.000E-02 alpha_mix =  0.700 |ddv_scf|^2 =  1.411E-07

      iter #   2 total cpu time :  1584.4 secs   av.it.:  10.7
      thresh= 3.756E-05 alpha_mix =  0.700 |ddv_scf|^2 =  1.394E-08

      iter #   3 total cpu time :  1597.7 secs   av.it.:  10.7
      thresh= 1.181E-05 alpha_mix =  0.700 |ddv_scf|^2 =  3.953E-10

      iter #   4 total cpu time :  1611.1 secs   av.it.:  10.1
      thresh= 1.988E-06 alpha_mix =  0.700 |ddv_scf|^2 =  4.010E-12

      iter #   5 total cpu time :  1625.1 secs   av.it.:  10.5
      thresh= 2.003E-07 alpha_mix =  0.700 |ddv_scf|^2 =  1.189E-13

      iter #   6 total cpu time :  1639.2 secs   av.it.:  10.2
      thresh= 3.448E-08 alpha_mix =  0.700 |ddv_scf|^2 =  1.835E-15

      iter #   7 total cpu time :  1652.8 secs   av.it.:  10.4
      thresh= 4.284E-09 alpha_mix =  0.700 |ddv_scf|^2 =  2.444E-17

     End of self-consistent calculation

     Convergence has been achieved 


     Representation #   6 mode #   6

     Self-consistent Calculation

      iter #   1 total cpu time :  1663.2 secs   av.it.:   6.8
      thresh= 1.000E-02 alpha_mix =  0.700 |ddv_scf|^2 =  6.096E-06

      iter #   2 total cpu time :  1677.7 secs   av.it.:  11.1
      thresh= 2.469E-04 alpha_mix =  0.700 |ddv_scf|^2 =  6.701E-07

      iter #   3 total cpu time :  1691.0 secs   av.it.:  10.6
      thresh= 8.186E-05 alpha_mix =  0.700 |ddv_scf|^2 =  4.789E-09

      iter #   4 total cpu time :  1705.8 secs   av.it.:  10.6
      thresh= 6.920E-06 alpha_mix =  0.700 |ddv_scf|^2 =  5.032E-10

      iter #   5 total cpu time :  1718.1 secs   av.it.:   9.4
      thresh= 2.243E-06 alpha_mix =  0.700 |ddv_scf|^2 =  2.270E-12

      iter #   6 total cpu time :  1732.2 secs   av.it.:  10.4
      thresh= 1.507E-07 alpha_mix =  0.700 |ddv_scf|^2 =  4.719E-14

      iter #   7 total cpu time :  1745.5 secs   av.it.:   9.9
      thresh= 2.172E-08 alpha_mix =  0.700 |ddv_scf|^2 =  4.553E-16

      iter #   8 total cpu time :  1759.0 secs   av.it.:  10.0
      thresh= 2.134E-09 alpha_mix =  0.700 |ddv_scf|^2 =  9.154E-18

     End of self-consistent calculation

     Convergence has been achieved 
 
     Number of q in the star =    6
     List of q in the star:
          1   0.000000000   0.500000000   0.000000000
          2  -0.500000000   0.000000000   0.000000000
          3   0.000000000  -0.500000000   0.000000000
          4   0.000000000   0.000000000   0.500000000
          5   0.000000000   0.000000000  -0.500000000
          6   0.500000000   0.000000000   0.000000000

     Diagonalizing the dynamical matrix

     q = (    0.000000000   0.500000000   0.000000000 ) 

 **************************************************************************
     freq (    1) =       1.931913 [THz] =      64.441686 [cm-1]
     freq (    2) =       1.931913 [THz] =      64.441686 [cm-1]
     freq (    3) =       3.943391 [THz] =     131.537362 [cm-1]
     freq (    4) =       7.716214 [THz] =     257.385194 [cm-1]
     freq (    5) =       7.716214 [THz] =     257.385194 [cm-1]
     freq (    6) =       8.306061 [THz] =     277.060384 [cm-1]
 **************************************************************************

     Mode symmetry, C_2v (mm2)  point group:

     freq (   1-   1) =         64.4  [cm-1]   --> B_1  D_3  S_3      
     freq (   2-   2) =         64.4  [cm-1]   --> B_2  D_4  S_4      
     freq (   3-   3) =        131.5  [cm-1]   --> A_1  D_1  S_1      
     freq (   4-   4) =        257.4  [cm-1]   --> B_1  D_3  S_3      
     freq (   5-   5) =        257.4  [cm-1]   --> B_2  D_4  S_4      
     freq (   6-   6) =        277.1  [cm-1]   --> A_1  D_1  S_1      

     Calculation of q =    0.7500000  -0.2500000   0.7500000
 
     Parallelization info
     --------------------
     sticks:   dense  smooth     PW     G-vecs:    dense   smooth      PW
     Min         129      64     22                 4004     1413     287
     Max         130      65     23                 4007     1416     290
     Sum        2209    1099    379                68105    24045    4909
 
     Using Slab Decomposition
 

     Title: 
     GaAs phonon dispersion: DFPT on a 4x4x4 q-grid                             


     bravais-lattice index     =            0
     lattice parameter (alat)  =      10.6829  a.u.
     unit-cell volume          =     304.7948 (a.u.)^3
     number of atoms/cell      =            2
     number of atomic types    =            2
     number of electrons       =        18.00
     number of Kohn-Sham states=            9
     kinetic-energy cutoff     =      70.0000  Ry
     charge density cutoff     =     560.0000  Ry
     Exchange-correlation= PBE
                           (   1   4   3   4   0   0   0)

     celldm(1)=  10.682900  celldm(2)=   0.000000  celldm(3)=   0.000000
     celldm(4)=   0.000000  celldm(5)=   0.000000  celldm(6)=   0.000000

     crystal axes: (cart. coord. in units of alat)
               a(1) = (  -0.500000   0.000000   0.500000 )  
               a(2) = (   0.000000   0.500000   0.500000 )  
               a(3) = (  -0.500000   0.500000   0.000000 )  

     reciprocal axes: (cart. coord. in units 2 pi/alat)
               b(1) = ( -1.000000 -1.000000  1.000000 )  
               b(2) = (  1.000000  1.000000  1.000000 )  
               b(3) = ( -1.000000  1.000000 -1.000000 )  


     PseudoPot. # 1 for Ga read from file:
     ./Ga.pbe-dn-kjpaw_psl.0.2.upf
     MD5 check sum: f703b3f64ba021741ea9c16c693bf590
     Pseudo is Projector augmented-wave + core cor, Zval = 13.0
     Generated using "atomic" code by A. Dal Corso  v.5.0.99 svn rev. 10869
     Shape of augmentation charge: BESSEL
     Using radial grid of 1205 points,  6 beta functions with: 
                l(1) =   0
                l(2) =   0
                l(3) =   1
                l(4) =   1
                l(5) =   2
                l(6) =   2
     Q(r) pseudized with 0 coefficients 


     PseudoPot. # 2 for As read from file:
     ./As.pbe-n-kjpaw_psl.0.2.upf
     MD5 check sum: 076d91deeb42e24e5cc35739acc2a16c
     Pseudo is Projector augmented-wave + core cor, Zval =  5.0
     Generated using "atomic" code by A. Dal Corso  v.5.0.99 svn rev. 10869
     Shape of augmentation charge: PSQ
     Using radial grid of 1209 points,  4 beta functions with: 
                l(1) =   0
                l(2) =   0
                l(3) =   1
                l(4) =   1
     Q(r) pseudized with 0 coefficients 


     atomic species   valence    mass     pseudopotential
     Ga               13.00    69.72300     Ga( 1.00)
     As                5.00    74.92160     As( 1.00)

     24 Sym. Ops. (no inversion) found



   Cartesian axes

     site n.     atom                  positions (alat units)
         1        Ga     tau(   1) = (   0.0000000   0.0000000   0.0000000  )
         2        As     tau(   2) = (   0.2500000   0.2500000   0.2500000  )

     number of k points=  1872

     Number of k-points >= 100: set verbosity='high' to print them.

     Dense  grid:    68105 G-vectors     FFT dimensions: (  60,  60,  60)

     Smooth grid:    24045 G-vectors     FFT dimensions: (  45,  45,  45)

     Estimated max dynamical RAM per process >       8.51 MB

     Estimated total dynamical RAM >     578.85 MB

     The potential is recalculated from file :
     ./out/_ph0/gaas.save/charge-density

     Starting wfcs are   13 atomic wfcs
     Checking if some PAW data can be deallocated... 

     Band Structure Calculation
     Davidson diagonalization with overlap

     ethr =  5.56E-11,  avg # of iterations = 11.7

     total cpu time spent up to now is      118.8 secs

     End of band structure calculation

     Number of k-points >= 100: set verbosity='high' to print the bands.

     highest occupied level (ev):     7.6145

     Writing config to output data dir ./out/_ph0/gaas.save/ :
     XML data file

     GaAs phonon dispersion: DFPT on a 4x4x4 q-grid                             

     bravais-lattice index     =            0
     lattice parameter (alat)  =      10.6829  a.u.
     unit-cell volume          =     304.7948 (a.u.)^3
     number of atoms/cell      =            2
     number of atomic types    =            2
     kinetic-energy cut-off    =      70.0000  Ry
     charge density cut-off    =     560.0000  Ry
     convergence threshold     =      1.0E-16
     beta                      =       0.7000
     number of iterations used =           12
     Exchange-correlation= PBE
                           (   1   4   3   4   0   0   0)


     celldm(1)=   10.68290  celldm(2)=    0.00000  celldm(3)=    0.00000
     celldm(4)=    0.00000  celldm(5)=    0.00000  celldm(6)=    0.00000

     crystal axes: (cart. coord. in units of alat)
               a(1) = ( -0.5000  0.0000  0.5000 )  
               a(2) = (  0.0000  0.5000  0.5000 )  
               a(3) = ( -0.5000  0.5000  0.0000 )  

     reciprocal axes: (cart. coord. in units 2 pi/alat)
               b(1) = ( -1.0000 -1.0000  1.0000 )  
               b(2) = (  1.0000  1.0000  1.0000 )  
               b(3) = ( -1.0000  1.0000 -1.0000 )  


     Atoms inside the unit cell: 

     Cartesian axes

     site n.  atom      mass           positions (alat units)
        1  Ga     69.7230   tau(    1) = (    0.00000    0.00000    0.00000  )
        2  As     74.9216   tau(    2) = (    0.25000    0.25000    0.25000  )

     Computing dynamical matrix for 
                    q = (   0.7500000  -0.2500000   0.7500000 )
 
      2 Sym.Ops. (no q -> -q+G )


     G cutoff = 1618.8500  (   4007 G-vectors)     FFT grid: ( 60, 60, 60)
     G cutoff =  809.4250  (   1416 G-vectors)  smooth grid: ( 45, 45, 45)
     number of k points=  1872

     PseudoPot. # 1 for Ga read from file:
     ./Ga.pbe-dn-kjpaw_psl.0.2.upf
     MD5 check sum: f703b3f64ba021741ea9c16c693bf590
     Pseudo is Projector augmented-wave + core cor, Zval = 13.0
     Generated using "atomic" code by A. Dal Corso  v.5.0.99 svn rev. 10869
     Shape of augmentation charge: BESSEL
     Using radial grid of 1205 points,  6 beta functions with: 
                l(1) =   0
                l(2) =   0
                l(3) =   1
                l(4) =   1
                l(5) =   2
                l(6) =   2
     Q(r) pseudized with 0 coefficients 


     PseudoPot. # 2 for As read from file:
     ./As.pbe-n-kjpaw_psl.0.2.upf
     MD5 check sum: 076d91deeb42e24e5cc35739acc2a16c
     Pseudo is Projector augmented-wave + core cor, Zval =  5.0
     Generated using "atomic" code by A. Dal Corso  v.5.0.99 svn rev. 10869
     Shape of augmentation charge: PSQ
     Using radial grid of 1209 points,  4 beta functions with: 
                l(1) =   0
                l(2) =   0
                l(3) =   1
                l(4) =   1
     Q(r) pseudized with 0 coefficients 


     Mode symmetry, C_s (m)     point group:


     Atomic displacements:
     There are    6 irreducible representations

     Representation     1      1 modes -  To be done

     Representation     2      1 modes -  To be done

     Representation     3      1 modes -  To be done

     Representation     4      1 modes -  To be done

     Representation     5      1 modes -  To be done

     Representation     6      1 modes -  To be done



     Alpha used in Ewald sum =   2.8000
     PHONON       :  28m 4.41s CPU  30m26.74s WALL



     Representation #   1 mode #   1

     Self-consistent Calculation

      iter #   1 total cpu time :  1846.7 secs   av.it.:   7.2
      thresh= 1.000E-02 alpha_mix =  0.700 |ddv_scf|^2 =  4.807E-05

      iter #   2 total cpu time :  1872.5 secs   av.it.:  10.9
      thresh= 6.933E-04 alpha_mix =  0.700 |ddv_scf|^2 =  9.912E-05

      iter #   3 total cpu time :  1896.9 secs   av.it.:   9.3
      thresh= 9.956E-04 alpha_mix =  0.700 |ddv_scf|^2 =  1.110E-06

      iter #   4 total cpu time :  1921.2 secs   av.it.:  10.0
      thresh= 1.054E-04 alpha_mix =  0.700 |ddv_scf|^2 =  3.058E-08

      iter #   5 total cpu time :  1948.0 secs   av.it.:  10.9
      thresh= 1.749E-05 alpha_mix =  0.700 |ddv_scf|^2 =  4.862E-09

      iter #   6 total cpu time :  1972.5 secs   av.it.:  10.9
      thresh= 6.973E-06 alpha_mix =  0.700 |ddv_scf|^2 =  4.489E-10

      iter #   7 total cpu time :  1997.5 secs   av.it.:  10.9
      thresh= 2.119E-06 alpha_mix =  0.700 |ddv_scf|^2 =  8.782E-12

      iter #   8 total cpu time :  2024.8 secs   av.it.:  11.0
      thresh= 2.963E-07 alpha_mix =  0.700 |ddv_scf|^2 =  9.521E-13

      iter #   9 total cpu time :  2050.4 secs   av.it.:  10.9
      thresh= 9.757E-08 alpha_mix =  0.700 |ddv_scf|^2 =  4.489E-14

      iter #  10 total cpu time :  2076.9 secs   av.it.:  10.8
      thresh= 2.119E-08 alpha_mix =  0.700 |ddv_scf|^2 =  3.539E-14

      iter #  11 total cpu time :  2101.4 secs   av.it.:  10.0
      thresh= 1.881E-08 alpha_mix =  0.700 |ddv_scf|^2 =  1.534E-15

      iter #  12 total cpu time :  2126.5 secs   av.it.:  10.0
      thresh= 3.917E-09 alpha_mix =  0.700 |ddv_scf|^2 =  1.524E-17

     End of self-consistent calculation

     Convergence has been achieved 


     Representation #   2 mode #   2

     Self-consistent Calculation

      iter #   1 total cpu time :  2142.0 secs   av.it.:   5.1
      thresh= 1.000E-02 alpha_mix =  0.700 |ddv_scf|^2 =  2.986E-06

      iter #   2 total cpu time :  2167.8 secs   av.it.:  10.8
      thresh= 1.728E-04 alpha_mix =  0.700 |ddv_scf|^2 =  7.059E-06

      iter #   3 total cpu time :  2191.5 secs   av.it.:   9.4
      thresh= 2.657E-04 alpha_mix =  0.700 |ddv_scf|^2 =  2.952E-08

      iter #   4 total cpu time :  2216.5 secs   av.it.:  10.6
      thresh= 1.718E-05 alpha_mix =  0.700 |ddv_scf|^2 =  8.894E-10

      iter #   5 total cpu time :  2241.5 secs   av.it.:  10.5
      thresh= 2.982E-06 alpha_mix =  0.700 |ddv_scf|^2 =  1.333E-10

      iter #   6 total cpu time :  2265.8 secs   av.it.:  10.6
      thresh= 1.155E-06 alpha_mix =  0.700 |ddv_scf|^2 =  4.666E-12

      iter #   7 total cpu time :  2291.9 secs   av.it.:  11.1
      thresh= 2.160E-07 alpha_mix =  0.700 |ddv_scf|^2 =  7.129E-13

      iter #   8 total cpu time :  2318.7 secs   av.it.:  11.1
      thresh= 8.443E-08 alpha_mix =  0.700 |ddv_scf|^2 =  1.460E-14

      iter #   9 total cpu time :  2345.0 secs   av.it.:  10.9
      thresh= 1.208E-08 alpha_mix =  0.700 |ddv_scf|^2 =  1.192E-15

      iter #  10 total cpu time :  2371.3 secs   av.it.:  10.8
      thresh= 3.453E-09 alpha_mix =  0.700 |ddv_scf|^2 =  8.459E-16

      iter #  11 total cpu time :  2396.6 secs   av.it.:  10.4
      thresh= 2.908E-09 alpha_mix =  0.700 |ddv_scf|^2 =  9.205E-18

     End of self-consistent calculation

     Convergence has been achieved 


     Representation #   3 mode #   3

     Self-consistent Calculation

      iter #   1 total cpu time :  2412.2 secs   av.it.:   5.0
      thresh= 1.000E-02 alpha_mix =  0.700 |ddv_scf|^2 =  2.829E-06

      iter #   2 total cpu time :  2438.6 secs   av.it.:  10.7
      thresh= 1.682E-04 alpha_mix =  0.700 |ddv_scf|^2 =  6.355E-06

      iter #   3 total cpu time :  2461.9 secs   av.it.:   9.6
      thresh= 2.521E-04 alpha_mix =  0.700 |ddv_scf|^2 =  5.381E-08

      iter #   4 total cpu time :  2486.6 secs   av.it.:  10.1
      thresh= 2.320E-05 alpha_mix =  0.700 |ddv_scf|^2 =  1.013E-09

      iter #   5 total cpu time :  2511.8 secs   av.it.:  11.0
      thresh= 3.183E-06 alpha_mix =  0.700 |ddv_scf|^2 =  1.729E-10

      iter #   6 total cpu time :  2538.3 secs   av.it.:  11.0
      thresh= 1.315E-06 alpha_mix =  0.700 |ddv_scf|^2 =  4.019E-12

      iter #   7 total cpu time :  2563.9 secs   av.it.:  11.0
      thresh= 2.005E-07 alpha_mix =  0.700 |ddv_scf|^2 =  4.781E-13

      iter #   8 total cpu time :  2589.4 secs   av.it.:  10.9
      thresh= 6.914E-08 alpha_mix =  0.700 |ddv_scf|^2 =  2.213E-14

      iter #   9 total cpu time :  2615.3 secs   av.it.:  10.9
      thresh= 1.488E-08 alpha_mix =  0.700 |ddv_scf|^2 =  2.395E-16

      iter #  10 total cpu time :  2640.8 secs   av.it.:  10.9
      thresh= 1.548E-09 alpha_mix =  0.700 |ddv_scf|^2 =  2.800E-16

      iter #  11 total cpu time :  2665.8 secs   av.it.:   9.9
      thresh= 1.673E-09 alpha_mix =  0.700 |ddv_scf|^2 =  1.076E-17

     End of self-consistent calculation

     Convergence has been achieved 


     Representation #   4 mode #   4

     Self-consistent Calculation

      iter #   1 total cpu time :  2684.6 secs   av.it.:   7.0
      thresh= 1.000E-02 alpha_mix =  0.700 |ddv_scf|^2 =  1.291E-05

      iter #   2 total cpu time :  2710.3 secs   av.it.:  11.0
      thresh= 3.593E-04 alpha_mix =  0.700 |ddv_scf|^2 =  1.048E-05

      iter #   3 total cpu time :  2734.6 secs   av.it.:   9.7
      thresh= 3.237E-04 alpha_mix =  0.700 |ddv_scf|^2 =  1.143E-06

      iter #   4 total cpu time :  2758.0 secs   av.it.:   9.8
      thresh= 1.069E-04 alpha_mix =  0.700 |ddv_scf|^2 =  2.873E-08

      iter #   5 total cpu time :  2783.4 secs   av.it.:  10.7
      thresh= 1.695E-05 alpha_mix =  0.700 |ddv_scf|^2 =  2.950E-09

      iter #   6 total cpu time :  2807.5 secs   av.it.:  10.7
      thresh= 5.431E-06 alpha_mix =  0.700 |ddv_scf|^2 =  4.543E-10

      iter #   7 total cpu time :  2832.3 secs   av.it.:  10.9
      thresh= 2.131E-06 alpha_mix =  0.700 |ddv_scf|^2 =  1.064E-11

      iter #   8 total cpu time :  2859.1 secs   av.it.:  11.1
      thresh= 3.261E-07 alpha_mix =  0.700 |ddv_scf|^2 =  8.924E-13

      iter #   9 total cpu time :  2884.7 secs   av.it.:  11.1
      thresh= 9.447E-08 alpha_mix =  0.700 |ddv_scf|^2 =  4.554E-14

      iter #  10 total cpu time :  2911.0 secs   av.it.:  11.0
      thresh= 2.134E-08 alpha_mix =  0.700 |ddv_scf|^2 =  1.596E-15

      iter #  11 total cpu time :  2936.9 secs   av.it.:  10.7
      thresh= 3.995E-09 alpha_mix =  0.700 |ddv_scf|^2 =  2.555E-16

      iter #  12 total cpu time :  2962.4 secs   av.it.:  10.8
      thresh= 1.598E-09 alpha_mix =  0.700 |ddv_scf|^2 =  9.217E-17

     End of self-consistent calculation

     Convergence has been achieved 


     Representation #   5 mode #   5

     Self-consistent Calculation

      iter #   1 total cpu time :  2978.0 secs   av.it.:   5.0
      thresh= 1.000E-02 alpha_mix =  0.700 |ddv_scf|^2 =  1.662E-07

      iter #   2 total cpu time :  3003.3 secs   av.it.:  10.8
      thresh= 4.077E-05 alpha_mix =  0.700 |ddv_scf|^2 =  1.973E-08

      iter #   3 total cpu time :  3029.5 secs   av.it.:  10.7
      thresh= 1.405E-05 alpha_mix =  0.700 |ddv_scf|^2 =  4.331E-10

      iter #   4 total cpu time :  3053.3 secs   av.it.:  10.2
      thresh= 2.081E-06 alpha_mix =  0.700 |ddv_scf|^2 =  4.146E-12

      iter #   5 total cpu time :  3079.5 secs   av.it.:  10.7
      thresh= 2.036E-07 alpha_mix =  0.700 |ddv_scf|^2 =  1.383E-13

      iter #   6 total cpu time :  3103.7 secs   av.it.:  10.4
      thresh= 3.719E-08 alpha_mix =  0.700 |ddv_scf|^2 =  1.823E-15

      iter #   7 total cpu time :  3128.4 secs   av.it.:  10.5
      thresh= 4.269E-09 alpha_mix =  0.700 |ddv_scf|^2 =  5.165E-17

     End of self-consistent calculation

     Convergence has been achieved 


     Representation #   6 mode #   6

     Self-consistent Calculation

      iter #   1 total cpu time :  3148.6 secs   av.it.:   6.9
      thresh= 1.000E-02 alpha_mix =  0.700 |ddv_scf|^2 =  6.705E-06

      iter #   2 total cpu time :  3173.9 secs   av.it.:  11.2
      thresh= 2.589E-04 alpha_mix =  0.700 |ddv_scf|^2 =  9.141E-07

      iter #   3 total cpu time :  3199.7 secs   av.it.:  10.6
      thresh= 9.561E-05 alpha_mix =  0.700 |ddv_scf|^2 =  5.098E-09

      iter #   4 total cpu time :  3224.1 secs   av.it.:  10.7
      thresh= 7.140E-06 alpha_mix =  0.700 |ddv_scf|^2 =  5.398E-10

      iter #   5 total cpu time :  3247.1 secs   av.it.:   9.5
      thresh= 2.323E-06 alpha_mix =  0.700 |ddv_scf|^2 =  2.372E-12

      iter #   6 total cpu time :  3271.9 secs   av.it.:  10.4
      thresh= 1.540E-07 alpha_mix =  0.700 |ddv_scf|^2 =  6.879E-14

      iter #   7 total cpu time :  3296.2 secs   av.it.:  10.1
      thresh= 2.623E-08 alpha_mix =  0.700 |ddv_scf|^2 =  8.842E-16

      iter #   8 total cpu time :  3321.0 secs   av.it.:  10.4
      thresh= 2.973E-09 alpha_mix =  0.700 |ddv_scf|^2 =  7.675E-18

     End of self-consistent calculation

     Convergence has been achieved 
 
     Number of q in the star =   12
     List of q in the star:
          1   0.750000000  -0.250000000   0.750000000
          2  -0.750000000  -0.250000000  -0.750000000
          3   0.250000000  -0.750000000   0.750000000
          4  -0.750000000   0.250000000   0.750000000
          5   0.750000000   0.250000000  -0.750000000
          6   0.750000000   0.750000000  -0.250000000
          7  -0.750000000  -0.750000000  -0.250000000
          8  -0.750000000   0.750000000   0.250000000
          9  -0.250000000   0.750000000   0.750000000
         10   0.250000000   0.750000000  -0.750000000
         11  -0.250000000  -0.750000000  -0.750000000
         12   0.750000000  -0.750000000   0.250000000
     In addition there is the -q list: 
          1  -0.750000000   0.250000000  -0.750000000
          2   0.750000000   0.250000000   0.750000000
          3  -0.250000000   0.750000000  -0.750000000
          4   0.750000000  -0.250000000  -0.750000000
          5  -0.750000000  -0.250000000   0.750000000
          6  -0.750000000  -0.750000000   0.250000000
          7   0.750000000   0.750000000   0.250000000
          8   0.750000000  -0.750000000  -0.250000000
          9   0.250000000  -0.750000000  -0.750000000
         10  -0.250000000  -0.750000000   0.750000000
         11   0.250000000   0.750000000   0.750000000
         12  -0.750000000   0.750000000  -0.250000000

     Diagonalizing the dynamical matrix

     q = (    0.750000000  -0.250000000   0.750000000 ) 

 **************************************************************************
     freq (    1) =       2.046616 [THz] =      68.267752 [cm-1]
     freq (    2) =       2.844729 [THz] =      94.889930 [cm-1]
     freq (    3) =       5.323722 [THz] =     177.580244 [cm-1]
     freq (    4) =       7.036268 [THz] =     234.704647 [cm-1]
     freq (    5) =       7.690810 [THz] =     256.537823 [cm-1]
     freq (    6) =       8.023591 [THz] =     267.638199 [cm-1]
 **************************************************************************

     Mode symmetry, C_s (m)     point group:

     freq (   1-   1) =         68.3  [cm-1]   --> A''                
     freq (   2-   2) =         94.9  [cm-1]   --> A'                 
     freq (   3-   3) =        177.6  [cm-1]   --> A'                 
     freq (   4-   4) =        234.7  [cm-1]   --> A'                 
     freq (   5-   5) =        256.5  [cm-1]   --> A''                
     freq (   6-   6) =        267.6  [cm-1]   --> A'                 

     Calculation of q =    0.5000000   0.0000000   0.5000000
 
     Parallelization info
     --------------------
     sticks:   dense  smooth     PW     G-vecs:    dense   smooth      PW
     Min         129      64     21                 4004     1413     262
     Max         130      65     22                 4007     1416     264
     Sum        2209    1099    361                68105    24045    4477
 
     Using Slab Decomposition
 

     Title: 
     GaAs phonon dispersion: DFPT on a 4x4x4 q-grid                             


     bravais-lattice index     =            0
     lattice parameter (alat)  =      10.6829  a.u.
     unit-cell volume          =     304.7948 (a.u.)^3
     number of atoms/cell      =            2
     number of atomic types    =            2
     number of electrons       =        18.00
     number of Kohn-Sham states=            9
     kinetic-energy cutoff     =      70.0000  Ry
[...]
         2        As     tau(   2) = (   0.2500000   0.2500000   0.2500000  )

     number of k points=   880

     Number of k-points >= 100: set verbosity='high' to print them.

     Dense  grid:    68105 G-vectors     FFT dimensions: (  60,  60,  60)

     Smooth grid:    24045 G-vectors     FFT dimensions: (  45,  45,  45)

     Estimated max dynamical RAM per process >       8.52 MB

     Estimated total dynamical RAM >     579.06 MB

     The potential is recalculated from file :
     ./out/_ph0/gaas.save/charge-density

     Starting wfcs are   13 atomic wfcs
     Checking if some PAW data can be deallocated... 

     Band Structure Calculation
     Davidson diagonalization with overlap

     ethr =  5.56E-11,  avg # of iterations = 11.6

     total cpu time spent up to now is      211.7 secs

     End of band structure calculation

     Number of k-points >= 100: set verbosity='high' to print the bands.

     highest occupied level (ev):     7.6145

     Writing config to output data dir ./out/_ph0/gaas.save/ :
     XML data file

     GaAs phonon dispersion: DFPT on a 4x4x4 q-grid                             

     bravais-lattice index     =            0
     lattice parameter (alat)  =      10.6829  a.u.
     unit-cell volume          =     304.7948 (a.u.)^3
     number of atoms/cell      =            2
     number of atomic types    =            2
     kinetic-energy cut-off    =      70.0000  Ry
     charge density cut-off    =     560.0000  Ry
     convergence threshold     =      1.0E-16
     beta                      =       0.7000
     number of iterations used =           12
     Exchange-correlation= PBE
                           (   1   4   3   4   0   0   0)


     celldm(1)=   10.68290  celldm(2)=    0.00000  celldm(3)=    0.00000
     celldm(4)=    0.00000  celldm(5)=    0.00000  celldm(6)=    0.00000

     crystal axes: (cart. coord. in units of alat)
               a(1) = ( -0.5000  0.0000  0.5000 )  
               a(2) = (  0.0000  0.5000  0.5000 )  
               a(3) = ( -0.5000  0.5000  0.0000 )  

     reciprocal axes: (cart. coord. in units 2 pi/alat)
               b(1) = ( -1.0000 -1.0000  1.0000 )  
               b(2) = (  1.0000  1.0000  1.0000 )  
               b(3) = ( -1.0000  1.0000 -1.0000 )  


     Atoms inside the unit cell: 

     Cartesian axes

     site n.  atom      mass           positions (alat units)
        1  Ga     69.7230   tau(    1) = (    0.00000    0.00000    0.00000  )
        2  As     74.9216   tau(    2) = (    0.25000    0.25000    0.25000  )

     Computing dynamical matrix for 
                    q = (  -0.5000000  -1.0000000   0.0000000 )
 
      4 Sym.Ops. (no q -> -q+G )


     G cutoff = 1618.8500  (   4007 G-vectors)     FFT grid: ( 60, 60, 60)
     G cutoff =  809.4250  (   1416 G-vectors)  smooth grid: ( 45, 45, 45)
     number of k points=   880

     PseudoPot. # 1 for Ga read from file:
     ./Ga.pbe-dn-kjpaw_psl.0.2.upf
     MD5 check sum: f703b3f64ba021741ea9c16c693bf590
     Pseudo is Projector augmented-wave + core cor, Zval = 13.0
     Generated using "atomic" code by A. Dal Corso  v.5.0.99 svn rev. 10869
     Shape of augmentation charge: BESSEL
     Using radial grid of 1205 points,  6 beta functions with: 
                l(1) =   0
                l(2) =   0
                l(3) =   1
                l(4) =   1
                l(5) =   2
                l(6) =   2
     Q(r) pseudized with 0 coefficients 


     PseudoPot. # 2 for As read from file:
     ./As.pbe-n-kjpaw_psl.0.2.upf
     MD5 check sum: 076d91deeb42e24e5cc35739acc2a16c
     Pseudo is Projector augmented-wave + core cor, Zval =  5.0
     Generated using "atomic" code by A. Dal Corso  v.5.0.99 svn rev. 10869
     Shape of augmentation charge: PSQ
     Using radial grid of 1209 points,  4 beta functions with: 
                l(1) =   0
                l(2) =   0
                l(3) =   1
                l(4) =   1
     Q(r) pseudized with 0 coefficients 


     Mode symmetry, S_4 (-4)    point group:


     Atomic displacements:
     There are    6 irreducible representations

     Representation     1      1 modes -  To be done

     Representation     2      1 modes -  To be done

     Representation     3      1 modes -  To be done

     Representation     4      1 modes -  To be done

     Representation     5      1 modes -  To be done

     Representation     6      1 modes -  To be done



     Alpha used in Ewald sum =   2.8000
     PHONON       :      1h19m CPU      1h25m WALL



     Representation #   1 mode #   1

     Self-consistent Calculation

      iter #   1 total cpu time :  5151.5 secs   av.it.:   4.8
      thresh= 1.000E-02 alpha_mix =  0.700 |ddv_scf|^2 =  1.522E-06

      iter #   2 total cpu time :  5164.2 secs   av.it.:  10.6
      thresh= 1.234E-04 alpha_mix =  0.700 |ddv_scf|^2 =  1.743E-06

      iter #   3 total cpu time :  5175.7 secs   av.it.:  10.0
      thresh= 1.320E-04 alpha_mix =  0.700 |ddv_scf|^2 =  2.359E-09

      iter #   4 total cpu time :  5190.0 secs   av.it.:  11.7
      thresh= 4.856E-06 alpha_mix =  0.700 |ddv_scf|^2 =  9.814E-10

      iter #   5 total cpu time :  5202.1 secs   av.it.:  10.9
      thresh= 3.133E-06 alpha_mix =  0.700 |ddv_scf|^2 =  8.647E-12

      iter #   6 total cpu time :  5214.9 secs   av.it.:  11.2
      thresh= 2.941E-07 alpha_mix =  0.700 |ddv_scf|^2 =  1.517E-12

      iter #   7 total cpu time :  5227.0 secs   av.it.:  10.8
      thresh= 1.232E-07 alpha_mix =  0.700 |ddv_scf|^2 =  2.100E-15

      iter #   8 total cpu time :  5240.4 secs   av.it.:  10.7
      thresh= 4.583E-09 alpha_mix =  0.700 |ddv_scf|^2 =  3.675E-17

     End of self-consistent calculation

     Convergence has been achieved 


     Representation #   2 mode #   2

     Self-consistent Calculation

      iter #   1 total cpu time :  5248.5 secs   av.it.:   5.0
      thresh= 1.000E-02 alpha_mix =  0.700 |ddv_scf|^2 =  9.016E-07

      iter #   2 total cpu time :  5260.7 secs   av.it.:  10.8
      thresh= 9.495E-05 alpha_mix =  0.700 |ddv_scf|^2 =  4.153E-07

      iter #   3 total cpu time :  5272.6 secs   av.it.:  10.3
      thresh= 6.445E-05 alpha_mix =  0.700 |ddv_scf|^2 =  1.164E-09

      iter #   4 total cpu time :  5284.7 secs   av.it.:  10.0
      thresh= 3.412E-06 alpha_mix =  0.700 |ddv_scf|^2 =  9.009E-12

      iter #   5 total cpu time :  5297.5 secs   av.it.:  10.8
      thresh= 3.001E-07 alpha_mix =  0.700 |ddv_scf|^2 =  1.897E-13

      iter #   6 total cpu time :  5309.9 secs   av.it.:  10.7
      thresh= 4.355E-08 alpha_mix =  0.700 |ddv_scf|^2 =  2.599E-15

      iter #   7 total cpu time :  5321.5 secs   av.it.:  10.4
      thresh= 5.098E-09 alpha_mix =  0.700 |ddv_scf|^2 =  7.375E-17

     End of self-consistent calculation

     Convergence has been achieved 


     Representation #   3 mode #   3

     Self-consistent Calculation

      iter #   1 total cpu time :  5330.9 secs   av.it.:   6.9
      thresh= 1.000E-02 alpha_mix =  0.700 |ddv_scf|^2 =  1.259E-05

      iter #   2 total cpu time :  5344.7 secs   av.it.:  11.0
      thresh= 3.548E-04 alpha_mix =  0.700 |ddv_scf|^2 =  6.459E-06

      iter #   3 total cpu time :  5356.3 secs   av.it.:  10.1
      thresh= 2.541E-04 alpha_mix =  0.700 |ddv_scf|^2 =  8.557E-09

      iter #   4 total cpu time :  5369.6 secs   av.it.:  10.4
      thresh= 9.251E-06 alpha_mix =  0.700 |ddv_scf|^2 =  1.081E-09

      iter #   5 total cpu time :  5380.6 secs   av.it.:   9.5
      thresh= 3.289E-06 alpha_mix =  0.700 |ddv_scf|^2 =  4.785E-12

      iter #   6 total cpu time :  5392.4 secs   av.it.:  10.6
      thresh= 2.188E-07 alpha_mix =  0.700 |ddv_scf|^2 =  1.091E-13

      iter #   7 total cpu time :  5404.3 secs   av.it.:  10.2
      thresh= 3.302E-08 alpha_mix =  0.700 |ddv_scf|^2 =  2.441E-15

      iter #   8 total cpu time :  5416.1 secs   av.it.:  10.5
      thresh= 4.940E-09 alpha_mix =  0.700 |ddv_scf|^2 =  1.303E-17

     End of self-consistent calculation

     Convergence has been achieved 


     Representation #   4 mode #   4

     Self-consistent Calculation

      iter #   1 total cpu time :  5425.2 secs   av.it.:   5.0
      thresh= 1.000E-02 alpha_mix =  0.700 |ddv_scf|^2 =  5.249E-07

      iter #   2 total cpu time :  5437.2 secs   av.it.:  10.7
      thresh= 7.245E-05 alpha_mix =  0.700 |ddv_scf|^2 =  2.117E-07

      iter #   3 total cpu time :  5448.8 secs   av.it.:  10.3
      thresh= 4.601E-05 alpha_mix =  0.700 |ddv_scf|^2 =  5.983E-10

      iter #   4 total cpu time :  5461.0 secs   av.it.:  10.6
      thresh= 2.446E-06 alpha_mix =  0.700 |ddv_scf|^2 =  5.715E-12

      iter #   5 total cpu time :  5473.0 secs   av.it.:  10.8
      thresh= 2.391E-07 alpha_mix =  0.700 |ddv_scf|^2 =  2.199E-13

      iter #   6 total cpu time :  5486.0 secs   av.it.:  10.5
      thresh= 4.689E-08 alpha_mix =  0.700 |ddv_scf|^2 =  3.568E-15

      iter #   7 total cpu time :  5497.7 secs   av.it.:  10.2
      thresh= 5.973E-09 alpha_mix =  0.700 |ddv_scf|^2 =  9.114E-17

     End of self-consistent calculation

     Convergence has been achieved 


     Representation #   5 mode #   5

     Self-consistent Calculation

      iter #   1 total cpu time :  5507.4 secs   av.it.:   7.0
      thresh= 1.000E-02 alpha_mix =  0.700 |ddv_scf|^2 =  1.763E-05

      iter #   2 total cpu time :  5520.3 secs   av.it.:  11.0
      thresh= 4.199E-04 alpha_mix =  0.700 |ddv_scf|^2 =  8.131E-06

      iter #   3 total cpu time :  5531.7 secs   av.it.:  10.1
      thresh= 2.851E-04 alpha_mix =  0.700 |ddv_scf|^2 =  9.529E-09

      iter #   4 total cpu time :  5545.0 secs   av.it.:  10.4
      thresh= 9.762E-06 alpha_mix =  0.700 |ddv_scf|^2 =  1.067E-09

      iter #   5 total cpu time :  5555.9 secs   av.it.:   9.6
      thresh= 3.266E-06 alpha_mix =  0.700 |ddv_scf|^2 =  8.214E-12

      iter #   6 total cpu time :  5567.1 secs   av.it.:   9.8
      thresh= 2.866E-07 alpha_mix =  0.700 |ddv_scf|^2 =  2.265E-13

      iter #   7 total cpu time :  5579.3 secs   av.it.:  10.5
      thresh= 4.759E-08 alpha_mix =  0.700 |ddv_scf|^2 =  4.782E-15

      iter #   8 total cpu time :  5590.3 secs   av.it.:   9.4
      thresh= 6.915E-09 alpha_mix =  0.700 |ddv_scf|^2 =  4.865E-17

     End of self-consistent calculation

     Convergence has been achieved 


     Representation #   6 mode #   6

     Self-consistent Calculation

      iter #   1 total cpu time :  5600.5 secs   av.it.:   7.0
      thresh= 1.000E-02 alpha_mix =  0.700 |ddv_scf|^2 =  1.806E-05

      iter #   2 total cpu time :  5613.5 secs   av.it.:  10.9
      thresh= 4.250E-04 alpha_mix =  0.700 |ddv_scf|^2 =  1.639E-05

      iter #   3 total cpu time :  5624.8 secs   av.it.:   9.7
      thresh= 4.049E-04 alpha_mix =  0.700 |ddv_scf|^2 =  2.637E-07

      iter #   4 total cpu time :  5637.1 secs   av.it.:   9.8
      thresh= 5.135E-05 alpha_mix =  0.700 |ddv_scf|^2 =  1.949E-09

      iter #   5 total cpu time :  5648.3 secs   av.it.:   9.7
      thresh= 4.414E-06 alpha_mix =  0.700 |ddv_scf|^2 =  1.373E-11

      iter #   6 total cpu time :  5661.4 secs   av.it.:  10.3
      thresh= 3.706E-07 alpha_mix =  0.700 |ddv_scf|^2 =  2.193E-13

      iter #   7 total cpu time :  5672.6 secs   av.it.:  10.0
      thresh= 4.682E-08 alpha_mix =  0.700 |ddv_scf|^2 =  7.879E-15

      iter #   8 total cpu time :  5683.1 secs   av.it.:   9.1
      thresh= 8.876E-09 alpha_mix =  0.700 |ddv_scf|^2 =  2.173E-16

      iter #   9 total cpu time :  5695.3 secs   av.it.:  10.0
      thresh= 1.474E-09 alpha_mix =  0.700 |ddv_scf|^2 =  1.412E-18

     End of self-consistent calculation

     Convergence has been achieved 
 
     Number of q in the star =    6
     List of q in the star:
          1  -0.500000000  -1.000000000   0.000000000
          2   0.000000000   1.000000000  -0.500000000
          3   0.000000000   1.000000000   0.500000000
          4   0.500000000   1.000000000   0.000000000
          5   0.000000000  -0.500000000  -1.000000000
          6   0.000000000   0.500000000  -1.000000000

     Diagonalizing the dynamical matrix

     q = (   -0.500000000  -1.000000000   0.000000000 ) 

 **************************************************************************
     freq (    1) =       2.674565 [THz] =      89.213887 [cm-1]
     freq (    2) =       3.046683 [THz] =     101.626399 [cm-1]
     freq (    3) =       5.929361 [THz] =     197.782184 [cm-1]
     freq (    4) =       6.095948 [THz] =     203.338928 [cm-1]
     freq (    5) =       7.689491 [THz] =     256.493823 [cm-1]
     freq (    6) =       8.023393 [THz] =     267.631572 [cm-1]
 **************************************************************************

     Mode symmetry, S_4 (-4)    point group:

     freq (   1-   1) =         89.2  [cm-1]   --> B    W_3           
     freq (   2-   2) =        101.6  [cm-1]   --> E    W_4           
     freq (   3-   3) =        197.8  [cm-1]   --> A    W_1           
     freq (   4-   4) =        203.3  [cm-1]   --> E*   W_2           
     freq (   5-   5) =        256.5  [cm-1]   --> E    W_4           
     freq (   6-   6) =        267.6  [cm-1]   --> B    W_3           
 
     init_run     :      2.61s CPU      2.87s WALL (       7 calls)
     electrons    :    192.14s CPU    205.45s WALL (       7 calls)

     Called by init_run:
     wfcinit      :      0.00s CPU      0.06s WALL (       7 calls)
     potinit      :      0.89s CPU      0.96s WALL (       7 calls)
     hinit0       :      0.41s CPU      0.43s WALL (       7 calls)

     Called by electrons:
     c_bands      :    192.12s CPU    205.40s WALL (       7 calls)
     v_of_rho     :      0.16s CPU      0.17s WALL (       8 calls)
     newd         :      0.10s CPU      0.14s WALL (       8 calls)
     PAW_pot      :      0.81s CPU      0.82s WALL (       8 calls)

     Called by c_bands:
     init_us_2    :     11.46s CPU     14.31s WALL (   62480 calls)
     cegterg      :    156.89s CPU    166.32s WALL (    1772 calls)

     Called by *egterg:
     cdiaghg      :     28.91s CPU     29.91s WALL (   23127 calls)
     h_psi        :   3362.40s CPU   3605.31s WALL (  750587 calls)
     s_psi        :    134.60s CPU    149.82s WALL ( 1526744 calls)
     g_psi        :      0.39s CPU      0.41s WALL (   21355 calls)

     Called by h_psi:
     h_psi:calbec :    188.76s CPU    201.72s WALL (  750587 calls)
     vloc_psi     :   3058.01s CPU   3278.24s WALL (  750587 calls)
                                        0.00s GPU  (  750587 calls)
     add_vuspsi   :     76.95s CPU     84.02s WALL (  750587 calls)

     General routines
     calbec       :    316.52s CPU    347.35s WALL ( 1622101 calls)
     fft          :      7.62s CPU      8.59s WALL (    7745 calls)
     ffts         :      4.14s CPU      4.75s WALL (    6736 calls)
     fftw         :   3382.15s CPU   3638.49s WALL (11773160 calls)
     interpolate  :      1.42s CPU      1.51s WALL (     928 calls)
     davcio       :     30.13s CPU     49.79s WALL (  268845 calls)
 
     Parallel routines
 
     PHONON       :      1h27m CPU      1h34m WALL

     INITIALIZATION: 
     phq_setup    :      0.60s CPU      0.80s WALL (       8 calls)
     phq_init     :     41.12s CPU     44.03s WALL (       8 calls)
 
     phq_init     :     41.12s CPU     44.03s WALL (       8 calls)
     set_drhoc    :      0.02s CPU      0.02s WALL (      24 calls)
     init_vloc    :      0.01s CPU      0.01s WALL (       8 calls)
     init_us_1    :      0.28s CPU      0.31s WALL (       8 calls)
     init_us_2    :     11.46s CPU     14.31s WALL (   62480 calls)
     newd         :      0.10s CPU      0.14s WALL (       8 calls)
     dvanqq       :      3.19s CPU      3.22s WALL (       8 calls)
     drho         :     32.87s CPU     35.04s WALL (       8 calls)
     drhous       :     27.20s CPU     29.04s WALL (       8 calls)
     nldyntot     :      1.05s CPU      1.06s WALL (       8 calls)
 
     DYNAMICAL MATRIX:
     dynmat0      :      3.58s CPU      3.86s WALL (       8 calls)
     dynmat_us    :      3.39s CPU      3.59s WALL (       8 calls)
     addusdynmat  :      0.00s CPU      0.00s WALL (       8 calls)
     d2ionq       :      0.01s CPU      0.01s WALL (       8 calls)
     dynmatcc     :      0.16s CPU      0.17s WALL (       8 calls)
     phqscf       :   4945.71s CPU   5356.18s WALL (       8 calls)
     dynmatrix    :      0.12s CPU      0.27s WALL (       8 calls)
 
     phqscf       :   4945.71s CPU   5356.18s WALL (       8 calls)
     solve_linter :   4934.28s CPU   5341.14s WALL (      38 calls)
     dfpt_kernel  :   4945.92s CPU   5351.71s WALL (      39 calls)
     sth_kernel   :   4676.86s CPU   5053.77s WALL (     345 calls)
     h_prec       :      5.31s CPU      6.35s WALL (   47000 calls)
     apply_dpot_b :    270.05s CPU    296.40s WALL (   44883 calls)
     ortho        :     29.23s CPU     31.61s WALL (   50415 calls)
     cgsolve      :   3852.23s CPU   4150.04s WALL (   50415 calls)
     incdrhoscf   :    327.23s CPU    359.49s WALL (   50415 calls)
                                        0.00s GPU  (   50415 calls)
     addusddens   :     16.58s CPU     16.74s WALL (     376 calls)
     dv_of_drho   :      6.15s CPU      6.39s WALL (     434 calls)
     mix_pot      :      2.61s CPU     12.18s WALL (     345 calls)
     drhodv       :      9.72s CPU     10.83s WALL (      38 calls)
     psymdvscf    :    115.31s CPU    117.28s WALL (     346 calls)
     newdq        :     16.77s CPU     16.90s WALL (     345 calls)
     adddvscf     :      7.71s CPU      8.29s WALL (   44883 calls)
     com_dvloc    :      3.93s CPU      4.63s WALL (    5808 calls)
                                        0.00s GPU  (    5808 calls)
     addcore      :      0.40s CPU      0.42s WALL (     402 calls)
                                        0.00s GPU  (     402 calls)
     drhodvus     :      0.08s CPU      0.17s WALL (      38 calls)
 
     dvqpsi_us    :     42.18s CPU     45.31s WALL (    5532 calls)
                                        0.00s GPU  (    5532 calls)
     dvqpsi_us_on :      7.73s CPU      7.97s WALL (    5532 calls)
 
     add_vuspsi   :     76.95s CPU     84.02s WALL (  750587 calls)
     addusdbec    :     16.48s CPU     17.46s WALL (   55839 calls)
 
     drhodvus     :      0.08s CPU      0.17s WALL (      38 calls)
 
      General routines
     calbec       :    316.52s CPU    347.35s WALL ( 1622101 calls)
     fft          :      7.62s CPU      8.59s WALL (    7745 calls)
     ffts         :      4.14s CPU      4.75s WALL (    6736 calls)
     fftw         :   3382.15s CPU   3638.49s WALL (11773160 calls)
     davcio       :     30.13s CPU     49.79s WALL (  268845 calls)
     write_rec    :      2.28s CPU     19.43s WALL (     383 calls)
 
      Additional routines
     ch_psi       :   3748.59s CPU   4032.57s WALL (  725688 calls)
     last         :    399.17s CPU    439.86s WALL (  725688 calls)
     Hesh         :      8.13s CPU      9.45s WALL (  725688 calls)
     ch_psi_all_k :    371.94s CPU    409.70s WALL (  725688 calls)
                                        0.00s GPU  (  725688 calls)
     ch_psi_calbe :    124.14s CPU    133.22s WALL (  725688 calls)
                                        0.00s GPU  (  725688 calls)
     h_psi_bgrp   :   3372.43s CPU   3615.67s WALL (  750587 calls)
     h_psi        :   3362.40s CPU   3605.31s WALL (  750587 calls)
     h_psi:pot    :   3346.37s CPU   3586.93s WALL (  750587 calls)
     h_psi:calbec :    188.76s CPU    201.72s WALL (  750587 calls)
     s_psi_bgrp   :    162.72s CPU    179.05s WALL ( 1526744 calls)
     s_psi        :    134.60s CPU    149.82s WALL ( 1526744 calls)
 
 
     PHONON       :      1h27m CPU      1h34m WALL

 
   This run was terminated on:  19:53:10  20Jun2026            

=------------------------------------------------------------------------------=
   JOB DONE.
=------------------------------------------------------------------------------=
